 vasp.6.3.2 27Jun22 (build Sep 19 2022 21:41:52) complex                        
  
 executed on             LinuxIFC date 2024.05.17  04:37:22
 running on   64 total cores
 distrk:  each k-point on   64 cores,    1 groups
 distr:  one band on NCORE=  32 cores,    2 groups


--------------------------------------------------------------------------------------------------------


 INCAR:
   ALGO = Fast
   EDIFF = 1e-05
   EDIFFG = -0.01
   ENCUT = 520
   IBRION = 2
   ICHARG = 1
   ISIF = 3
   ISMEAR = 0
   ISPIN = 2
   ISYM = 2
   IVDW = 11
   LASPH = True
   LDAU = True
   LDAUJ = 0 0 0 0 0 0 0
   LDAUL = 2 0 0 0 0 0 0
   LDAUPRINT = 1
   LDAUTYPE = 2
   LDAUU = 4 0 0 0 0 0 0
   LMAXMIX = 4
   LORBIT = 11
   LPLANE = True
   LREAL = Auto
   LWAVE = False
   MAGMOM = 488*0.6
   NCORE = 32
   NELM = 10
   NELMIN = 4
   NSIM = 4
   NSW = 0
   PREC = Normal
   SIGMA = 0.05
   SYMPREC = 1E-6

 POTCAR:    PAW_PBE Cu 22Jun2005                  
 POTCAR:    PAW_PBE Sb 06Sep2000                  
 POTCAR:    PAW_PBE H 15Jun2001                   
 POTCAR:    PAW_PBE C 08Apr2002                   
 POTCAR:    PAW_PBE N 08Apr2002                   
 POTCAR:    PAW_PBE Cl 06Sep2000                  
 POTCAR:    PAW_PBE O 08Apr2002                   
 -----------------------------------------------------------------------------
|                                                                             |
|           W    W    AA    RRRRR   N    N  II  N    N   GGGG   !!!           |
|           W    W   A  A   R    R  NN   N  II  NN   N  G    G  !!!           |
|           W    W  A    A  R    R  N N  N  II  N N  N  G       !!!           |
|           W WW W  AAAAAA  RRRRR   N  N N  II  N  N N  G  GGG   !            |
|           WW  WW  A    A  R   R   N   NN  II  N   NN  G    G                |
|           W    W  A    A  R    R  N    N  II  N    N   GGGG   !!!           |
|                                                                             |
|     For optimal performance we recommend to set                             |
|       NCORE = 2 up to number-of-cores-per-socket                            |
|     NCORE specifies how many cores store one orbital (NPAR=cpu/NCORE).      |
|     This setting can greatly improve the performance of VASP for DFT.       |
|     The default, NCORE=1 might be grossly inefficient on modern             |
|     multi-core architectures or massively parallel machines. Do your        |
|     own testing! More info at https://www.vasp.at/wiki/index.php/NCORE      |
|     Unfortunately you need to use the default for GW and RPA                |
|     calculations (for HF NCORE is supported but not extensively tested      |
|     yet).                                                                   |
|                                                                             |
 -----------------------------------------------------------------------------

 POTCAR:    PAW_PBE Cu 22Jun2005                  
   VRHFIN =Cu: d10 p1                                                                               
   LEXCH  = PE                                                                                      
   EATOM  =  1390.9808 eV,  102.2342 Ry                                                             
                                                                                                    
   TITEL  = PAW_PBE Cu 22Jun2005                                                                    
   LULTRA =        F    use ultrasoft PP ?                                                          
   IUNSCR =        1    unscreen: 0-lin 1-nonlin 2-no                                               
   RPACOR =    2.000    partial core radius                                                         
   POMASS =   63.546; ZVAL   =   11.000    mass and valenz                                          
   RCORE  =    2.300    outmost cutoff radius                                                       
   RWIGS  =    2.200; RWIGS  =    1.164    wigner-seitz radius (au A)                               
   ENMAX  =  295.446; ENMIN  =  221.585 eV                                                          
   ICORE  =        3    local potential                                                             
   LCOR   =        T    correct aug charges                                                         
   LPAW   =        T    paw PP                                                                      
   EAUG   =  586.980                                                                                
   DEXC   =    0.000                                                                                
   RMAX   =    2.344    core radius for proj-oper                                                   
   RAUG   =    1.300    factor for augmentation sphere                                              
   RDEP   =    2.302    radius for radial grids                                                     
   RDEPT  =    1.771    core radius for aug-charge                                                  
                                                                                                    
   Atomic configuration                                                                             
    9 entries                                                                                       
     n  l   j            E        occ.                                                              
     1  0  0.50     -8850.2468   2.0000                                                             
     2  0  0.50     -1062.3498   2.0000                                                             
     2  1  1.50      -916.8226   6.0000                                                             
     3  0  0.50      -114.6929   2.0000                                                             
     3  1  1.50       -72.1325   6.0000                                                             
     3  2  2.50        -5.0394  10.0000                                                             
     4  0  0.50        -4.6097   1.0000                                                             
     4  1  0.50        -4.0817   0.0000                                                             
     4  3  2.50        -1.3606   0.0000                                                             
   Description                                                                                      
     l       E           TYP  RCUT    TYP  RCUT                                                     
     2     -5.0393973     23  2.200                                                                 
     2     10.8846608     23  2.200                                                                 
     0     -4.6097109     23  2.200                                                                 
     0      8.2520465     23  2.200                                                                 
     1     -2.7211652     23  2.200                                                                 
     1     21.7055443     23  2.200                                                                 
     3      2.7211652     23  2.300                                                                 
  local pseudopotential read in
  partial core-charges read in
  partial kinetic energy density read in
  atomic valenz-charges read in
  non local Contribution for L=           2  read in
    real space projection operators read in
  non local Contribution for L=           2  read in
    real space projection operators read in
  non local Contribution for L=           0  read in
    real space projection operators read in
  non local Contribution for L=           0  read in
    real space projection operators read in
  non local Contribution for L=           1  read in
    real space projection operators read in
  non local Contribution for L=           1  read in
    real space projection operators read in
    PAW grid and wavefunctions read in
 
   number of l-projection  operators is LMAX  =           6
   number of lm-projection operators is LMMAX =          18
 
 POTCAR:    PAW_PBE Sb 06Sep2000                  
   VRHFIN =Sb: s2p3                                                                                 
   LEXCH  = PE                                                                                      
   EATOM  =   149.9515 eV,   11.0211 Ry                                                             
                                                                                                    
   TITEL  = PAW_PBE Sb 06Sep2000                                                                    
   LULTRA =        F    use ultrasoft PP ?                                                          
   IUNSCR =        1    unscreen: 0-lin 1-nonlin 2-no                                               
   RPACOR =    2.200    partial core radius                                                         
   POMASS =  121.750; ZVAL   =    5.000    mass and valenz                                          
   RCORE  =    2.300    outmost cutoff radius                                                       
   RWIGS  =    2.980; RWIGS  =    1.577    wigner-seitz radius (au A)                               
   ENMAX  =  172.069; ENMIN  =  129.052 eV                                                          
   ICORE  =        3    local potential                                                             
   LCOR   =        T    correct aug charges                                                         
   LPAW   =        T    paw PP                                                                      
   EAUG   =  380.513                                                                                
   DEXC   =    0.000                                                                                
   RMAX   =    2.346    core radius for proj-oper                                                   
   RAUG   =    1.300    factor for augmentation sphere                                              
   RDEP   =    2.360    radius for radial grids                                                     
   RDEPT  =    2.192    core radius for aug-charge                                                  
                                                                                                    
   Atomic configuration                                                                             
   13 entries                                                                                       
     n  l   j            E        occ.                                                              
     1  0  0.50    -30298.2797   2.0000                                                             
     2  0  0.50     -4610.2252   2.0000                                                             
     2  1  1.50     -4138.3407   6.0000                                                             
     3  0  0.50      -903.8815   2.0000                                                             
     3  1  1.50      -750.1337   6.0000                                                             
     3  2  2.50      -515.7092  10.0000                                                             
     4  0  0.50      -148.8034   2.0000                                                             
     4  1  1.50      -101.7581   6.0000                                                             
     4  2  2.50       -33.5048  10.0000                                                             
     5  0  0.50       -12.8298   2.0000                                                             
     5  1  0.50        -4.8276   3.0000                                                             
     5  2  1.50        -4.0817   0.0000                                                             
     4  3  2.50        -4.0817   0.0000                                                             
   Description                                                                                      
     l       E           TYP  RCUT    TYP  RCUT                                                     
     0    -12.8297861     23  2.300                                                                 
     0     13.6058260     23  2.300                                                                 
     1     -4.8275512     23  2.300                                                                 
     1     -0.7245443     23  2.300                                                                 
     2     -4.0817478     23  2.300                                                                 
     3     -1.3605826     23  2.300                                                                 
  local pseudopotential read in
  partial core-charges read in
  partial kinetic energy density read in
  atomic valenz-charges read in
  non local Contribution for L=           0  read in
    real space projection operators read in
  non local Contribution for L=           0  read in
    real space projection operators read in
  non local Contribution for L=           1  read in
    real space projection operators read in
  non local Contribution for L=           1  read in
    real space projection operators read in
  non local Contribution for L=           2  read in
    real space projection operators read in
    PAW grid and wavefunctions read in
 
   number of l-projection  operators is LMAX  =           5
   number of lm-projection operators is LMMAX =          13
 
 POTCAR:    PAW_PBE H 15Jun2001                   
   VRHFIN =H: ultrasoft test                                                                        
   LEXCH  = PE                                                                                      
   EATOM  =    12.4884 eV,    0.9179 Ry                                                             
                                                                                                    
   TITEL  = PAW_PBE H 15Jun2001                                                                     
   LULTRA =        F    use ultrasoft PP ?                                                          
   IUNSCR =        0    unscreen: 0-lin 1-nonlin 2-no                                               
   RPACOR =    0.000    partial core radius                                                         
   POMASS =    1.000; ZVAL   =    1.000    mass and valenz                                          
   RCORE  =    1.100    outmost cutoff radius                                                       
   RWIGS  =    0.700; RWIGS  =    0.370    wigner-seitz radius (au A)                               
   ENMAX  =  250.000; ENMIN  =  200.000 eV                                                          
   RCLOC  =    0.701    cutoff for local pot                                                        
   LCOR   =        T    correct aug charges                                                         
   LPAW   =        T    paw PP                                                                      
   EAUG   =  400.000                                                                                
   RMAX   =    1.123    core radius for proj-oper                                                   
   RAUG   =    1.200    factor for augmentation sphere                                              
   RDEP   =    1.112    radius for radial grids                                                     
   RDEPT  =    0.926    core radius for aug-charge                                                  
                                                                                                    
   Atomic configuration                                                                             
    2 entries                                                                                       
     n  l   j            E        occ.                                                              
     1  0  0.50        -6.4927   1.0000                                                             
     2  1  0.50        -3.4015   0.0000                                                             
   Description                                                                                      
     l       E           TYP  RCUT    TYP  RCUT                                                     
     0     -6.4927494     23  1.100                                                                 
     0      6.8029130     23  1.100                                                                 
     1     -4.0817478     23  1.100                                                                 
  local pseudopotential read in
  atomic valenz-charges read in
  non local Contribution for L=           0  read in
    real space projection operators read in
  non local Contribution for L=           0  read in
    real space projection operators read in
  non local Contribution for L=           1  read in
    real space projection operators read in
    PAW grid and wavefunctions read in
 
   number of l-projection  operators is LMAX  =           3
   number of lm-projection operators is LMMAX =           5
 
 POTCAR:    PAW_PBE C 08Apr2002                   
   VRHFIN =C: s2p2                                                                                  
   LEXCH  = PE                                                                                      
   EATOM  =   147.1560 eV,   10.8157 Ry                                                             
                                                                                                    
   TITEL  = PAW_PBE C 08Apr2002                                                                     
   LULTRA =        F    use ultrasoft PP ?                                                          
   IUNSCR =        1    unscreen: 0-lin 1-nonlin 2-no                                               
   RPACOR =    1.200    partial core radius                                                         
   POMASS =   12.011; ZVAL   =    4.000    mass and valenz                                          
   RCORE  =    1.500    outmost cutoff radius                                                       
   RWIGS  =    1.630; RWIGS  =    0.863    wigner-seitz radius (au A)                               
   ENMAX  =  400.000; ENMIN  =  300.000 eV                                                          
   ICORE  =        2    local potential                                                             
   LCOR   =        T    correct aug charges                                                         
   LPAW   =        T    paw PP                                                                      
   EAUG   =  644.873                                                                                
   DEXC   =    0.000                                                                                
   RMAX   =    1.529    core radius for proj-oper                                                   
   RAUG   =    1.300    factor for augmentation sphere                                              
   RDEP   =    1.501    radius for radial grids                                                     
   RDEPT  =    1.300    core radius for aug-charge                                                  
                                                                                                    
   Atomic configuration                                                                             
    4 entries                                                                                       
     n  l   j            E        occ.                                                              
     1  0  0.50      -273.3789   2.0000                                                             
     2  0  0.50       -13.7508   2.0000                                                             
     2  1  0.50        -5.2854   2.0000                                                             
     3  2  1.50        -5.4423   0.0000                                                             
   Description                                                                                      
     l       E           TYP  RCUT    TYP  RCUT                                                     
     0    -13.7508458     23  1.200                                                                 
     0     -8.2022199     23  1.200                                                                 
     1     -5.2854383     23  1.500                                                                 
     1     34.0145650     23  1.500                                                                 
     2     -5.4423304      7  1.500                                                                 
  local pseudopotential read in
  partial core-charges read in
  partial kinetic energy density read in
  atomic valenz-charges read in
  non local Contribution for L=           0  read in
    real space projection operators read in
  non local Contribution for L=           0  read in
    real space projection operators read in
  non local Contribution for L=           1  read in
    real space projection operators read in
  non local Contribution for L=           1  read in
    real space projection operators read in
    PAW grid and wavefunctions read in
 
   number of l-projection  operators is LMAX  =           4
   number of lm-projection operators is LMMAX =           8
 
 POTCAR:    PAW_PBE N 08Apr2002                   
   VRHFIN =N: s2p3                                                                                  
   LEXCH  = PE                                                                                      
   EATOM  =   264.5486 eV,   19.4438 Ry                                                             
                                                                                                    
   TITEL  = PAW_PBE N 08Apr2002                                                                     
   LULTRA =        F    use ultrasoft PP ?                                                          
   IUNSCR =        1    unscreen: 0-lin 1-nonlin 2-no                                               
   RPACOR =    1.200    partial core radius                                                         
   POMASS =   14.001; ZVAL   =    5.000    mass and valenz                                          
   RCORE  =    1.500    outmost cutoff radius                                                       
   RWIGS  =    1.400; RWIGS  =    0.741    wigner-seitz radius (au A)                               
   ENMAX  =  400.000; ENMIN  =  300.000 eV                                                          
   ICORE  =        2    local potential                                                             
   LCOR   =        T    correct aug charges                                                         
   LPAW   =        T    paw PP                                                                      
   EAUG   =  627.112                                                                                
   DEXC   =    0.000                                                                                
   RMAX   =    1.529    core radius for proj-oper                                                   
   RAUG   =    1.300    factor for augmentation sphere                                              
   RDEP   =    1.514    radius for radial grids                                                     
   RDEPT  =    1.338    core radius for aug-charge                                                  
                                                                                                    
   Atomic configuration                                                                             
    4 entries                                                                                       
     n  l   j            E        occ.                                                              
     1  0  0.50      -384.7179   2.0000                                                             
     2  0  0.50       -18.5828   2.0000                                                             
     2  1  0.50        -7.0898   3.0000                                                             
     3  2  1.50        -6.8029   0.0000                                                             
   Description                                                                                      
     l       E           TYP  RCUT    TYP  RCUT                                                     
     0    -18.5828119     23  1.200                                                                 
     0    -13.5018863     23  1.200                                                                 
     1     -7.0897853     23  1.500                                                                 
     1      9.5240782     23  1.500                                                                 
     2     -6.8029130      7  1.500                                                                 
  local pseudopotential read in
  partial core-charges read in
  partial kinetic energy density read in
  atomic valenz-charges read in
  non local Contribution for L=           0  read in
    real space projection operators read in
  non local Contribution for L=           0  read in
    real space projection operators read in
  non local Contribution for L=           1  read in
    real space projection operators read in
  non local Contribution for L=           1  read in
    real space projection operators read in
    PAW grid and wavefunctions read in
 
   number of l-projection  operators is LMAX  =           4
   number of lm-projection operators is LMMAX =           8
 
 POTCAR:    PAW_PBE Cl 06Sep2000                  
   VRHFIN =Cl: s2p5                                                                                 
   LEXCH  = PE                                                                                      
   EATOM  =   409.7259 eV,   30.1140 Ry                                                             
                                                                                                    
   TITEL  = PAW_PBE Cl 06Sep2000                                                                    
   LULTRA =        F    use ultrasoft PP ?                                                          
   IUNSCR =        1    unscreen: 0-lin 1-nonlin 2-no                                               
   RPACOR =    1.500    partial core radius                                                         
   POMASS =   35.453; ZVAL   =    7.000    mass and valenz                                          
   RCORE  =    1.900    outmost cutoff radius                                                       
   RWIGS  =    2.100; RWIGS  =    1.111    wigner-seitz radius (au A)                               
   ENMAX  =  262.472; ENMIN  =  196.854 eV                                                          
   ICORE  =        2    local potential                                                             
   LCOR   =        T    correct aug charges                                                         
   LPAW   =        T    paw PP                                                                      
   EAUG   =  356.192                                                                                
   DEXC   =    0.000                                                                                
   RMAX   =    1.945    core radius for proj-oper                                                   
   RAUG   =    1.300    factor for augmentation sphere                                              
   RDEP   =    2.020    radius for radial grids                                                     
   RDEPT  =    1.678    core radius for aug-charge                                                  
                                                                                                    
   Atomic configuration                                                                             
    6 entries                                                                                       
     n  l   j            E        occ.                                                              
     1  0  0.50     -2751.1850   2.0000                                                             
     2  0  0.50      -252.6861   2.0000                                                             
     2  1  1.50      -191.6157   6.0000                                                             
     3  0  0.50       -20.6916   2.0000                                                             
     3  1  0.50        -8.5949   5.0000                                                             
     3  2  1.50        -8.1635   0.0000                                                             
   Description                                                                                      
     l       E           TYP  RCUT    TYP  RCUT                                                     
     0    -20.6915656     23  1.900                                                                 
     0    -22.0521482     23  1.900                                                                 
     1     -8.5948577     23  1.900                                                                 
     1     -5.3847331     23  1.900                                                                 
     2     -8.1634956     23  1.900                                                                 
  local pseudopotential read in
  partial core-charges read in
  partial kinetic energy density read in
  atomic valenz-charges read in
  non local Contribution for L=           0  read in
    real space projection operators read in
  non local Contribution for L=           0  read in
    real space projection operators read in
  non local Contribution for L=           1  read in
    real space projection operators read in
  non local Contribution for L=           1  read in
    real space projection operators read in
    PAW grid and wavefunctions read in
 
   number of l-projection  operators is LMAX  =           4
   number of lm-projection operators is LMMAX =           8
 
 POTCAR:    PAW_PBE O 08Apr2002                   
   VRHFIN =O: s2p4                                                                                  
   LEXCH  = PE                                                                                      
   EATOM  =   432.3788 eV,   31.7789 Ry                                                             
                                                                                                    
   TITEL  = PAW_PBE O 08Apr2002                                                                     
   LULTRA =        F    use ultrasoft PP ?                                                          
   IUNSCR =        1    unscreen: 0-lin 1-nonlin 2-no                                               
   RPACOR =    1.200    partial core radius                                                         
   POMASS =   16.000; ZVAL   =    6.000    mass and valenz                                          
   RCORE  =    1.520    outmost cutoff radius                                                       
   RWIGS  =    1.550; RWIGS  =    0.820    wigner-seitz radius (au A)                               
   ENMAX  =  400.000; ENMIN  =  300.000 eV                                                          
   ICORE  =        2    local potential                                                             
   LCOR   =        T    correct aug charges                                                         
   LPAW   =        T    paw PP                                                                      
   EAUG   =  605.392                                                                                
   DEXC   =    0.000                                                                                
   RMAX   =    1.553    core radius for proj-oper                                                   
   RAUG   =    1.300    factor for augmentation sphere                                              
   RDEP   =    1.550    radius for radial grids                                                     
   RDEPT  =    1.329    core radius for aug-charge                                                  
                                                                                                    
   Atomic configuration                                                                             
    4 entries                                                                                       
     n  l   j            E        occ.                                                              
     1  0  0.50      -514.6923   2.0000                                                             
     2  0  0.50       -23.9615   2.0000                                                             
     2  1  0.50        -9.0305   4.0000                                                             
     3  2  1.50        -9.5241   0.0000                                                             
   Description                                                                                      
     l       E           TYP  RCUT    TYP  RCUT                                                     
     0    -23.9615318     23  1.200                                                                 
     0     -9.5240782     23  1.200                                                                 
     1     -9.0304911     23  1.520                                                                 
     1      8.1634956     23  1.520                                                                 
     2     -9.5240782      7  1.500                                                                 
  local pseudopotential read in
  partial core-charges read in
  partial kinetic energy density read in
  kinetic energy density of atom read in
  atomic valenz-charges read in
  non local Contribution for L=           0  read in
    real space projection operators read in
  non local Contribution for L=           0  read in
    real space projection operators read in
  non local Contribution for L=           1  read in
    real space projection operators read in
  non local Contribution for L=           1  read in
    real space projection operators read in
    PAW grid and wavefunctions read in
 
   number of l-projection  operators is LMAX  =           4
   number of lm-projection operators is LMMAX =           8
 
 Optimization of the real space projectors (new method)

 maximal supplied QI-value         = 16.25
 optimisation between [QCUT,QGAM] = [ 11.54, 23.24] = [ 37.28,151.24] Ry 
 Optimized for a Real-space Cutoff    1.49 Angstroem

   l    n(q)    QCUT    max X(q) W(low)/X(q) W(high)/X(q)  e(spline) 
   2      9    11.539     4.610    0.25E-03    0.13E-03    0.22E-06
   2      9    11.539     8.522    0.41E-03    0.21E-03    0.31E-06
   0     10    11.539    51.609    0.73E-04    0.38E-04    0.12E-06
   0     10    11.539    27.747    0.69E-04    0.36E-04    0.11E-06
   1     10    11.539    20.408    0.24E-04    0.93E-04    0.21E-06
   1     10    11.539    13.425    0.21E-04    0.81E-04    0.19E-06
 Optimization of the real space projectors (new method)

 maximal supplied QI-value         = 16.25
 optimisation between [QCUT,QGAM] = [ 11.54, 23.24] = [ 37.28,151.24] Ry 
 Optimized for a Real-space Cutoff    1.28 Angstroem

   l    n(q)    QCUT    max X(q) W(low)/X(q) W(high)/X(q)  e(spline) 
   0      9    11.539    19.000    0.11E-03    0.18E-03    0.75E-07
   0      9    11.539     9.057    0.12E-03    0.22E-03    0.92E-07
   1      8    11.539   125.345    0.26E-03    0.92E-04    0.15E-06
   1      8    11.539    79.963    0.26E-03    0.91E-04    0.14E-06
   2      8    11.539     6.963    0.87E-04    0.17E-03    0.50E-07
 Optimization of the real space projectors (new method)

 maximal supplied QI-value         = 34.20
 optimisation between [QCUT,QGAM] = [ 11.63, 23.26] = [ 37.87,151.49] Ry 
 Optimized for a Real-space Cutoff    1.14 Angstroem

   l    n(q)    QCUT    max X(q) W(low)/X(q) W(high)/X(q)  e(spline) 
   0      8    11.629    19.460    0.27E-03    0.65E-03    0.17E-06
   0      8    11.629    12.209    0.25E-03    0.62E-03    0.16E-06
   1      7    11.629     4.655    0.29E-03    0.85E-04    0.19E-06
 Optimization of the real space projectors (new method)

 maximal supplied QI-value         = 25.13
 optimisation between [QCUT,QGAM] = [ 11.56, 23.12] = [ 37.43,149.72] Ry 
 Optimized for a Real-space Cutoff    1.04 Angstroem

   l    n(q)    QCUT    max X(q) W(low)/X(q) W(high)/X(q)  e(spline) 
   0      7    11.561   115.676    0.20E-03    0.60E-03    0.21E-06
   0      7    11.561    87.132    0.20E-03    0.59E-03    0.21E-06
   1      7    11.561     4.429    0.23E-03    0.35E-03    0.15E-06
   1      7    11.561     2.733    0.18E-03    0.25E-03    0.12E-06
 Optimization of the real space projectors (new method)

 maximal supplied QI-value         = 25.13
 optimisation between [QCUT,QGAM] = [ 11.56, 23.12] = [ 37.43,149.72] Ry 
 Optimized for a Real-space Cutoff    1.25 Angstroem

   l    n(q)    QCUT    max X(q) W(low)/X(q) W(high)/X(q)  e(spline) 
   0      9    11.561    79.467    0.52E-04    0.16E-03    0.37E-06
   0      9    11.561    66.151    0.51E-04    0.16E-03    0.37E-06
   1      8    11.561    18.886    0.46E-03    0.28E-03    0.80E-06
   1      8    11.561    13.488    0.47E-03    0.29E-03    0.82E-06
 Optimization of the real space projectors (new method)

 maximal supplied QI-value         = 19.84
 optimisation between [QCUT,QGAM] = [ 11.51, 23.22] = [ 37.09,150.92] Ry 
 Optimized for a Real-space Cutoff    1.18 Angstroem

   l    n(q)    QCUT    max X(q) W(low)/X(q) W(high)/X(q)  e(spline) 
   0      8    11.508   168.010    0.15E-03    0.24E-03    0.44E-07
   0      8    11.508   164.674    0.15E-03    0.23E-03    0.43E-07
   1      8    11.508    69.222    0.38E-03    0.13E-03    0.93E-07
   1      8    11.508    56.786    0.37E-03    0.13E-03    0.92E-07
 Optimization of the real space projectors (new method)

 maximal supplied QI-value         = 24.76
 optimisation between [QCUT,QGAM] = [ 11.64, 23.27] = [ 37.91,151.63] Ry 
 Optimized for a Real-space Cutoff    1.04 Angstroem

   l    n(q)    QCUT    max X(q) W(low)/X(q) W(high)/X(q)  e(spline) 
   0      7    11.635    20.381    0.14E-03    0.49E-03    0.18E-06
   0      7    11.635    15.268    0.16E-03    0.52E-03    0.19E-06
   1      7    11.635     5.964    0.30E-03    0.44E-03    0.22E-06
   1      7    11.635     5.382    0.27E-03    0.34E-03    0.19E-06
  PAW_PBE Cu 22Jun2005                  :
 energy of atom  1       EATOM=-1390.9808
 kinetic energy error for atom=    0.0037 (will be added to EATOM!!)
  PAW_PBE Sb 06Sep2000                  :
 energy of atom  2       EATOM= -149.9515
 kinetic energy error for atom=    0.0005 (will be added to EATOM!!)
  PAW_PBE H 15Jun2001                   :
 energy of atom  3       EATOM=  -12.4884
 kinetic energy error for atom=    0.0014 (will be added to EATOM!!)
  PAW_PBE C 08Apr2002                   :
 energy of atom  4       EATOM= -147.1560
 kinetic energy error for atom=    0.0071 (will be added to EATOM!!)
  PAW_PBE N 08Apr2002                   :
 energy of atom  5       EATOM= -264.5486
 kinetic energy error for atom=    0.0125 (will be added to EATOM!!)
  PAW_PBE Cl 06Sep2000                  :
 energy of atom  6       EATOM= -409.7259
 kinetic energy error for atom=    0.0023 (will be added to EATOM!!)
  PAW_PBE O 08Apr2002                   :
 energy of atom  7       EATOM= -432.3788
 kinetic energy error for atom=    0.0208 (will be added to EATOM!!)
 
 
 POSCAR: Cu8 Sb8 H256 C96 N32 Cl72 O16
  positions in direct lattice
  velocities in cartesian coordinates
 exchange correlation table for  LEXCH =        8
   RHO(1)=    0.500       N(1)  =     2000
   RHO(2)=  100.500       N(2)  =     4000
 


--------------------------------------------------------------------------------------------------------


 ion  position               nearest neighbor table
   1  0.662  0.338  0.750- 409 2.23 416 2.23 425 2.46 426 2.46
   2  0.838  0.162  0.750- 410 2.23 415 2.23 425 2.46 426 2.46
   3  0.162  0.662  0.750- 411 2.23 414 2.23 427 2.46 428 2.46
   4  0.338  0.838  0.750- 412 2.23 413 2.23 427 2.46 428 2.46
   5  0.338  0.662  0.250- 424 2.23 417 2.23 429 2.46 430 2.46
   6  0.162  0.838  0.250- 423 2.23 418 2.23 429 2.46 430 2.46
   7  0.838  0.338  0.250- 422 2.23 419 2.23 431 2.46 432 2.46
   8  0.662  0.162  0.250- 421 2.23 420 2.23 431 2.46 432 2.46
   9  0.250  0.250  0.745- 405 2.53 457 2.53 458 2.53 459 2.53 460 2.53 401 2.66
  10  0.750  0.750  0.755- 406 2.53 461 2.53 462 2.53 463 2.53 464 2.53 402 2.66
  11  0.750  0.750  0.255- 407 2.53 465 2.53 466 2.53 467 2.53 468 2.53 403 2.66
  12  0.250  0.250  0.245- 408 2.53 469 2.53 470 2.53 471 2.53 472 2.53 404 2.66
  13  0.250  0.250  0.533- 433 2.44 437 2.65 438 2.65 439 2.65 440 2.65
  14  0.750  0.750  0.967- 434 2.44 441 2.65 442 2.65 443 2.65 444 2.65
  15  0.750  0.750  0.467- 435 2.44 445 2.65 446 2.65 447 2.65 448 2.65
  16  0.250  0.250  0.033- 436 2.44 449 2.65 450 2.65 451 2.65 452 2.65
  17  0.327  0.624  0.467- 473 0.99
  18  0.173  0.876  0.467- 474 0.99
  19  0.876  0.327  0.467- 475 0.99
  20  0.624  0.173  0.467- 476 0.99
  21  0.673  0.124  0.033- 477 0.99
  22  0.827  0.376  0.033- 478 0.99
  23  0.124  0.827  0.033- 479 0.99
  24  0.376  0.673  0.033- 480 0.99
  25  0.673  0.376  0.533- 481 0.99
  26  0.827  0.124  0.533- 482 0.99
  27  0.124  0.673  0.533- 483 0.99
  28  0.376  0.827  0.533- 484 0.99
  29  0.327  0.876  0.967- 485 0.99
  30  0.173  0.624  0.967- 486 0.99
  31  0.876  0.173  0.967- 487 0.99
  32  0.624  0.327  0.967- 488 0.99
  33  0.308  0.510  0.475- 473 0.99
  34  0.192  0.990  0.475- 474 0.99
  35  0.990  0.308  0.475- 475 0.99
  36  0.510  0.192  0.475- 476 0.99
  37  0.692  0.010  0.025- 477 0.99
  38  0.808  0.490  0.025- 478 0.99
  39  0.010  0.808  0.025- 479 0.99
  40  0.490  0.692  0.025- 480 0.99
  41  0.692  0.490  0.525- 481 0.99
  42  0.808  0.010  0.525- 482 0.99
  43  0.010  0.692  0.525- 483 0.99
  44  0.490  0.808  0.525- 484 0.99
  45  0.308  0.990  0.975- 485 0.99
  46  0.192  0.510  0.975- 486 0.99
  47  0.990  0.192  0.975- 487 0.99
  48  0.510  0.308  0.975- 488 0.99
  49  0.653  0.342  0.329- 369 1.05
  50  0.847  0.158  0.329- 370 1.05
  51  0.158  0.653  0.329- 371 1.05
  52  0.342  0.847  0.329- 372 1.05
  53  0.347  0.842  0.171- 373 1.05
  54  0.153  0.658  0.171- 374 1.05
  55  0.842  0.153  0.171- 375 1.05
  56  0.658  0.347  0.171- 376 1.05
  57  0.347  0.658  0.671- 377 1.05
  58  0.153  0.842  0.671- 378 1.05
  59  0.842  0.347  0.671- 379 1.05
  60  0.658  0.153  0.671- 380 1.05
  61  0.653  0.158  0.829- 381 1.05
  62  0.847  0.342  0.829- 382 1.05
  63  0.158  0.847  0.829- 383 1.05
  64  0.342  0.653  0.829- 384 1.05
  65  0.447  0.526  0.424- 385 1.06
  66  0.053  0.974  0.424- 386 1.06
  67  0.974  0.447  0.424- 387 1.06
  68  0.526  0.053  0.424- 388 1.06
  69  0.553  0.026  0.076- 389 1.06
  70  0.947  0.474  0.076- 390 1.06
  71  0.026  0.947  0.076- 391 1.06
  72  0.474  0.553  0.076- 392 1.06
  73  0.553  0.474  0.576- 393 1.06
  74  0.947  0.026  0.576- 394 1.06
  75  0.026  0.553  0.576- 395 1.06
  76  0.474  0.947  0.576- 396 1.06
  77  0.447  0.974  0.924- 397 1.06
  78  0.053  0.526  0.924- 398 1.06
  79  0.974  0.053  0.924- 399 1.06
  80  0.526  0.447  0.924- 400 1.06
  81  0.577  0.499  0.304- 273 1.09
  82  0.923  0.001  0.304- 274 1.09
  83  0.001  0.577  0.304- 275 1.09
  84  0.499  0.923  0.304- 276 1.09
  85  0.423  0.999  0.196- 277 1.09
  86  0.077  0.501  0.196- 278 1.09
  87  0.999  0.077  0.196- 279 1.09
  88  0.501  0.423  0.196- 280 1.09
  89  0.423  0.501  0.696- 281 1.09
  90  0.077  0.999  0.696- 282 1.09
  91  0.999  0.423  0.696- 283 1.09
  92  0.501  0.077  0.696- 284 1.09
  93  0.577  0.001  0.804- 285 1.09
  94  0.923  0.499  0.804- 286 1.09
  95  0.001  0.923  0.804- 287 1.09
  96  0.499  0.577  0.804- 288 1.09
  97  0.693  0.511  0.333- 273 1.09
  98  0.807  0.989  0.333- 274 1.09
  99  0.989  0.693  0.333- 275 1.09
 100  0.511  0.807  0.333- 276 1.09
 101  0.307  0.011  0.167- 277 1.09
 102  0.193  0.489  0.167- 278 1.09
 103  0.011  0.193  0.167- 279 1.09
 104  0.489  0.307  0.167- 280 1.09
 105  0.307  0.489  0.667- 281 1.09
 106  0.193  0.011  0.667- 282 1.09
 107  0.011  0.307  0.667- 283 1.09
 108  0.489  0.193  0.667- 284 1.09
 109  0.693  0.989  0.833- 285 1.09
 110  0.807  0.511  0.833- 286 1.09
 111  0.989  0.807  0.833- 287 1.09
 112  0.511  0.693  0.833- 288 1.09
 113  0.519  0.613  0.360- 289 1.09
 114  0.981  0.887  0.360- 290 1.09
 115  0.887  0.519  0.360- 291 1.09
 116  0.613  0.981  0.360- 292 1.09
 117  0.481  0.113  0.140- 293 1.09
 118  0.019  0.387  0.140- 294 1.09
 119  0.113  0.019  0.140- 295 1.09
 120  0.387  0.481  0.140- 296 1.09
 121  0.481  0.387  0.640- 297 1.09
 122  0.019  0.113  0.640- 298 1.09
 123  0.113  0.481  0.640- 299 1.09
 124  0.387  0.019  0.640- 300 1.09
 125  0.519  0.887  0.860- 301 1.09
 126  0.981  0.613  0.860- 302 1.09
 127  0.887  0.981  0.860- 303 1.09
 128  0.613  0.519  0.860- 304 1.09
 129  0.618  0.585  0.400- 289 1.09
 130  0.882  0.915  0.400- 290 1.09
 131  0.915  0.618  0.400- 291 1.09
 132  0.585  0.882  0.400- 292 1.09
 133  0.382  0.085  0.100- 293 1.09
 134  0.118  0.415  0.100- 294 1.09
 135  0.085  0.118  0.100- 295 1.09
 136  0.415  0.382  0.100- 296 1.09
 137  0.382  0.415  0.600- 297 1.09
 138  0.118  0.085  0.600- 298 1.09
 139  0.085  0.382  0.600- 299 1.09
 140  0.415  0.118  0.600- 300 1.09
 141  0.618  0.915  0.900- 301 1.09
 142  0.882  0.585  0.900- 302 1.09
 143  0.915  0.882  0.900- 303 1.09
 144  0.585  0.618  0.900- 304 1.09
 145  0.486  0.341  0.309- 305 1.10
 146  0.014  0.159  0.309- 306 1.10
 147  0.159  0.486  0.309- 307 1.10
 148  0.341  0.014  0.309- 308 1.10
 149  0.514  0.841  0.191- 309 1.10
 150  0.986  0.659  0.191- 310 1.10
 151  0.841  0.986  0.191- 311 1.10
 152  0.659  0.514  0.191- 312 1.10
 153  0.514  0.659  0.691- 313 1.10
 154  0.986  0.841  0.691- 314 1.10
 155  0.841  0.514  0.691- 315 1.10
 156  0.659  0.986  0.691- 316 1.10
 157  0.486  0.159  0.809- 317 1.10
 158  0.014  0.341  0.809- 318 1.10
 159  0.159  0.014  0.809- 319 1.10
 160  0.341  0.486  0.809- 320 1.10
 161  0.499  0.273  0.361- 305 1.09
 162  0.001  0.227  0.361- 306 1.09
 163  0.227  0.499  0.361- 307 1.09
 164  0.273  0.001  0.361- 308 1.09
 165  0.501  0.773  0.139- 309 1.09
 166  0.999  0.727  0.139- 310 1.09
 167  0.773  0.999  0.139- 311 1.09
 168  0.727  0.501  0.139- 312 1.09
 169  0.501  0.727  0.639- 313 1.09
 170  0.999  0.773  0.639- 314 1.09
 171  0.773  0.501  0.639- 315 1.09
 172  0.727  0.999  0.639- 316 1.09
 173  0.499  0.227  0.861- 317 1.09
 174  0.001  0.273  0.861- 318 1.09
 175  0.227  0.001  0.861- 319 1.09
 176  0.273  0.499  0.861- 320 1.09
 177  0.376  0.386  0.391- 321 1.10
 178  0.124  0.114  0.391- 322 1.10
 179  0.114  0.376  0.391- 323 1.10
 180  0.386  0.124  0.391- 324 1.10
 181  0.624  0.886  0.109- 325 1.10
 182  0.876  0.614  0.109- 326 1.10
 183  0.886  0.876  0.109- 327 1.10
 184  0.614  0.624  0.109- 328 1.10
 185  0.624  0.614  0.609- 329 1.10
 186  0.876  0.886  0.609- 330 1.10
 187  0.886  0.624  0.609- 331 1.10
 188  0.614  0.876  0.609- 332 1.10
 189  0.376  0.114  0.891- 333 1.10
 190  0.124  0.386  0.891- 334 1.10
 191  0.114  0.124  0.891- 335 1.10
 192  0.386  0.376  0.891- 336 1.10
 193  0.398  0.475  0.345- 321 1.10
 194  0.102  0.025  0.345- 322 1.10
 195  0.025  0.398  0.345- 323 1.10
 196  0.475  0.102  0.345- 324 1.10
 197  0.602  0.975  0.155- 325 1.10
 198  0.898  0.525  0.155- 326 1.10
 199  0.975  0.898  0.155- 327 1.10
 200  0.525  0.602  0.155- 328 1.10
 201  0.602  0.525  0.655- 329 1.10
 202  0.898  0.975  0.655- 330 1.10
 203  0.975  0.602  0.655- 331 1.10
 204  0.525  0.898  0.655- 332 1.10
 205  0.398  0.025  0.845- 333 1.10
 206  0.102  0.475  0.845- 334 1.10
 207  0.025  0.102  0.845- 335 1.10
 208  0.475  0.398  0.845- 336 1.10
 209  0.713  0.407  0.405- 337 1.09
 210  0.787  0.093  0.405- 338 1.09
 211  0.093  0.713  0.405- 339 1.09
 212  0.407  0.787  0.405- 340 1.09
 213  0.287  0.907  0.095- 341 1.09
 214  0.213  0.593  0.095- 342 1.09
 215  0.907  0.213  0.095- 343 1.09
 216  0.593  0.287  0.095- 344 1.09
 217  0.287  0.593  0.595- 345 1.09
 218  0.213  0.907  0.595- 346 1.09
 219  0.907  0.287  0.595- 347 1.09
 220  0.593  0.213  0.595- 348 1.09
 221  0.713  0.093  0.905- 349 1.09
 222  0.787  0.407  0.905- 350 1.09
 223  0.093  0.787  0.905- 351 1.09
 224  0.407  0.713  0.905- 352 1.09
 225  0.648  0.291  0.407- 337 1.09
 226  0.852  0.209  0.407- 338 1.09
 227  0.209  0.648  0.407- 339 1.09
 228  0.291  0.852  0.407- 340 1.09
 229  0.352  0.791  0.093- 341 1.09
 230  0.148  0.709  0.093- 342 1.09
 231  0.791  0.148  0.093- 343 1.09
 232  0.709  0.352  0.093- 344 1.09
 233  0.352  0.709  0.593- 345 1.09
 234  0.148  0.791  0.593- 346 1.09
 235  0.791  0.352  0.593- 347 1.09
 236  0.709  0.148  0.593- 348 1.09
 237  0.648  0.209  0.907- 349 1.09
 238  0.852  0.291  0.907- 350 1.09
 239  0.209  0.852  0.907- 351 1.09
 240  0.291  0.648  0.907- 352 1.09
 241  0.511  0.363  0.448- 353 1.10
 242  0.989  0.137  0.448- 354 1.10
 243  0.137  0.511  0.448- 355 1.10
 244  0.363  0.989  0.448- 356 1.10
 245  0.489  0.863  0.052- 357 1.10
 246  0.011  0.637  0.052- 358 1.10
 247  0.863  0.011  0.052- 359 1.10
 248  0.637  0.489  0.052- 360 1.10
 249  0.489  0.637  0.552- 361 1.10
 250  0.011  0.863  0.552- 362 1.10
 251  0.863  0.489  0.552- 363 1.10
 252  0.637  0.011  0.552- 364 1.10
 253  0.511  0.137  0.948- 365 1.10
 254  0.989  0.363  0.948- 366 1.10
 255  0.137  0.989  0.948- 367 1.10
 256  0.363  0.511  0.948- 368 1.10
 257  0.594  0.463  0.460- 353 1.09
 258  0.906  0.037  0.460- 354 1.09
 259  0.037  0.594  0.460- 355 1.09
 260  0.463  0.906  0.460- 356 1.09
 261  0.406  0.963  0.040- 357 1.09
 262  0.094  0.537  0.040- 358 1.09
 263  0.963  0.094  0.040- 359 1.09
 264  0.537  0.406  0.040- 360 1.09
 265  0.406  0.537  0.540- 361 1.09
 266  0.094  0.963  0.540- 362 1.09
 267  0.963  0.406  0.540- 363 1.09
 268  0.537  0.094  0.540- 364 1.09
 269  0.594  0.037  0.960- 365 1.09
 270  0.906  0.463  0.960- 366 1.09
 271  0.037  0.906  0.960- 367 1.09
 272  0.463  0.594  0.960- 368 1.09
 273  0.614  0.492  0.337-  81 1.09  97 1.09 369 1.50 289 1.53
 274  0.886  0.008  0.337-  82 1.09  98 1.09 370 1.50 290 1.53
 275  0.008  0.614  0.337-  83 1.09  99 1.09 371 1.50 291 1.53
 276  0.492  0.886  0.337-  84 1.09 100 1.09 372 1.50 292 1.53
 277  0.386  0.992  0.163-  85 1.09 101 1.09 373 1.50 293 1.53
 278  0.114  0.508  0.163-  86 1.09 102 1.09 374 1.50 294 1.53
 279  0.992  0.114  0.163-  87 1.09 103 1.09 375 1.50 295 1.53
 280  0.508  0.386  0.163-  88 1.09 104 1.09 376 1.50 296 1.53
 281  0.386  0.508  0.663-  89 1.09 105 1.09 377 1.50 297 1.53
 282  0.114  0.992  0.663-  90 1.09 106 1.09 378 1.50 298 1.53
 283  0.992  0.386  0.663-  91 1.09 107 1.09 379 1.50 299 1.53
 284  0.508  0.114  0.663-  92 1.09 108 1.09 380 1.50 300 1.53
 285  0.614  0.008  0.837-  93 1.09 109 1.09 381 1.50 301 1.53
 286  0.886  0.492  0.837-  94 1.09 110 1.09 382 1.50 302 1.53
 287  0.008  0.886  0.837-  95 1.09 111 1.09 383 1.50 303 1.53
 288  0.492  0.614  0.837-  96 1.09 112 1.09 384 1.50 304 1.53
 289  0.564  0.554  0.375- 129 1.09 113 1.09 385 1.51 273 1.53
 290  0.936  0.946  0.375- 130 1.09 114 1.09 386 1.51 274 1.53
 291  0.946  0.564  0.375- 131 1.09 115 1.09 387 1.51 275 1.53
 292  0.554  0.936  0.375- 132 1.09 116 1.09 388 1.51 276 1.53
 293  0.436  0.054  0.125- 133 1.09 117 1.09 389 1.51 277 1.53
 294  0.064  0.446  0.125- 134 1.09 118 1.09 390 1.51 278 1.53
 295  0.054  0.064  0.125- 135 1.09 119 1.09 391 1.51 279 1.53
 296  0.446  0.436  0.125- 136 1.09 120 1.09 392 1.51 280 1.53
 297  0.436  0.446  0.625- 137 1.09 121 1.09 393 1.51 281 1.53
 298  0.064  0.054  0.625- 138 1.09 122 1.09 394 1.51 282 1.53
 299  0.054  0.436  0.625- 139 1.09 123 1.09 395 1.51 283 1.53
 300  0.446  0.064  0.625- 140 1.09 124 1.09 396 1.51 284 1.53
 301  0.564  0.946  0.875- 141 1.09 125 1.09 397 1.51 285 1.53
 302  0.936  0.554  0.875- 142 1.09 126 1.09 398 1.51 286 1.53
 303  0.946  0.936  0.875- 143 1.09 127 1.09 399 1.51 287 1.53
 304  0.554  0.564  0.875- 144 1.09 128 1.09 400 1.51 288 1.53
 305  0.502  0.348  0.346- 161 1.09 145 1.10 369 1.50 321 1.53
 306  0.998  0.152  0.346- 162 1.09 146 1.10 370 1.50 322 1.53
 307  0.152  0.502  0.346- 163 1.09 147 1.10 371 1.50 323 1.53
 308  0.348  0.998  0.346- 164 1.09 148 1.10 372 1.50 324 1.53
 309  0.498  0.848  0.154- 165 1.09 149 1.10 373 1.50 325 1.53
 310  0.002  0.652  0.154- 166 1.09 150 1.10 374 1.50 326 1.53
 311  0.848  0.002  0.154- 167 1.09 151 1.10 375 1.50 327 1.53
 312  0.652  0.498  0.154- 168 1.09 152 1.10 376 1.50 328 1.53
 313  0.498  0.652  0.654- 169 1.09 153 1.10 377 1.50 329 1.53
 314  0.002  0.848  0.654- 170 1.09 154 1.10 378 1.50 330 1.53
 315  0.848  0.498  0.654- 171 1.09 155 1.10 379 1.50 331 1.53
 316  0.652  0.002  0.654- 172 1.09 156 1.10 380 1.50 332 1.53
 317  0.502  0.152  0.846- 173 1.09 157 1.10 381 1.50 333 1.53
 318  0.998  0.348  0.846- 174 1.09 158 1.10 382 1.50 334 1.53
 319  0.152  0.998  0.846- 175 1.09 159 1.10 383 1.50 335 1.53
 320  0.348  0.502  0.846- 176 1.09 160 1.10 384 1.50 336 1.53
 321  0.434  0.423  0.370- 177 1.10 193 1.10 385 1.51 305 1.53
 322  0.066  0.077  0.370- 178 1.10 194 1.10 386 1.51 306 1.53
 323  0.077  0.434  0.370- 179 1.10 195 1.10 387 1.51 307 1.53
 324  0.423  0.066  0.370- 180 1.10 196 1.10 388 1.51 308 1.53
 325  0.566  0.923  0.130- 181 1.10 197 1.10 389 1.51 309 1.53
 326  0.934  0.577  0.130- 182 1.10 198 1.10 390 1.51 310 1.53
 327  0.923  0.934  0.130- 183 1.10 199 1.10 391 1.51 311 1.53
 328  0.577  0.566  0.130- 184 1.10 200 1.10 392 1.51 312 1.53
 329  0.566  0.577  0.630- 185 1.10 201 1.10 393 1.51 313 1.53
 330  0.934  0.923  0.630- 186 1.10 202 1.10 394 1.51 314 1.53
 331  0.923  0.566  0.630- 187 1.10 203 1.10 395 1.51 315 1.53
 332  0.577  0.934  0.630- 188 1.10 204 1.10 396 1.51 316 1.53
 333  0.434  0.077  0.870- 189 1.10 205 1.10 397 1.51 317 1.53
 334  0.066  0.423  0.870- 190 1.10 206 1.10 398 1.51 318 1.53
 335  0.077  0.066  0.870- 191 1.10 207 1.10 399 1.51 319 1.53
 336  0.423  0.434  0.870- 192 1.10 208 1.10 400 1.51 320 1.53
 337  0.640  0.371  0.401- 225 1.09 209 1.09 369 1.50 353 1.54
 338  0.860  0.129  0.401- 226 1.09 210 1.09 370 1.50 354 1.54
 339  0.129  0.640  0.401- 227 1.09 211 1.09 371 1.50 355 1.54
 340  0.371  0.860  0.401- 228 1.09 212 1.09 372 1.50 356 1.54
 341  0.360  0.871  0.099- 229 1.09 213 1.09 373 1.50 357 1.54
 342  0.140  0.629  0.099- 230 1.09 214 1.09 374 1.50 358 1.54
 343  0.871  0.140  0.099- 231 1.09 215 1.09 375 1.50 359 1.54
 344  0.629  0.360  0.099- 232 1.09 216 1.09 376 1.50 360 1.54
 345  0.360  0.629  0.599- 233 1.09 217 1.09 377 1.50 361 1.54
 346  0.140  0.871  0.599- 234 1.09 218 1.09 378 1.50 362 1.54
 347  0.871  0.360  0.599- 235 1.09 219 1.09 379 1.50 363 1.54
 348  0.629  0.140  0.599- 236 1.09 220 1.09 380 1.50 364 1.54
 349  0.640  0.129  0.901- 237 1.09 221 1.09 381 1.50 365 1.54
 350  0.860  0.371  0.901- 238 1.09 222 1.09 382 1.50 366 1.54
 351  0.129  0.860  0.901- 239 1.09 223 1.09 383 1.50 367 1.54
 352  0.371  0.640  0.901- 240 1.09 224 1.09 384 1.50 368 1.54
 353  0.560  0.418  0.432- 257 1.09 241 1.10 385 1.50 337 1.54
 354  0.940  0.082  0.432- 258 1.09 242 1.10 386 1.50 338 1.54
 355  0.082  0.560  0.432- 259 1.09 243 1.10 387 1.50 339 1.54
 356  0.418  0.940  0.432- 260 1.09 244 1.10 388 1.50 340 1.54
 357  0.440  0.918  0.068- 261 1.09 245 1.10 389 1.50 341 1.54
 358  0.060  0.582  0.068- 262 1.09 246 1.10 390 1.50 342 1.54
 359  0.918  0.060  0.068- 263 1.09 247 1.10 391 1.50 343 1.54
 360  0.582  0.440  0.068- 264 1.09 248 1.10 392 1.50 344 1.54
 361  0.440  0.582  0.568- 265 1.09 249 1.10 393 1.50 345 1.54
 362  0.060  0.918  0.568- 266 1.09 250 1.10 394 1.50 346 1.54
 363  0.918  0.440  0.568- 267 1.09 251 1.10 395 1.50 347 1.54
 364  0.582  0.060  0.568- 268 1.09 252 1.10 396 1.50 348 1.54
 365  0.560  0.082  0.932- 269 1.09 253 1.10 397 1.50 349 1.54
 366  0.940  0.418  0.932- 270 1.09 254 1.10 398 1.50 350 1.54
 367  0.082  0.940  0.932- 271 1.09 255 1.10 399 1.50 351 1.54
 368  0.418  0.560  0.932- 272 1.09 256 1.10 400 1.50 352 1.54
 369  0.608  0.384  0.351-  49 1.05 337 1.50 305 1.50 273 1.50
 370  0.892  0.116  0.351-  50 1.05 338 1.50 306 1.50 274 1.50
 371  0.116  0.608  0.351-  51 1.05 339 1.50 307 1.50 275 1.50
 372  0.384  0.892  0.351-  52 1.05 340 1.50 308 1.50 276 1.50
 373  0.392  0.884  0.149-  53 1.05 341 1.50 309 1.50 277 1.50
 374  0.108  0.616  0.149-  54 1.05 342 1.50 310 1.50 278 1.50
 375  0.884  0.108  0.149-  55 1.05 343 1.50 311 1.50 279 1.50
 376  0.616  0.392  0.149-  56 1.05 344 1.50 312 1.50 280 1.50
 377  0.392  0.616  0.649-  57 1.05 345 1.50 313 1.50 281 1.50
 378  0.108  0.884  0.649-  58 1.05 346 1.50 314 1.50 282 1.50
 379  0.884  0.392  0.649-  59 1.05 347 1.50 315 1.50 283 1.50
 380  0.616  0.108  0.649-  60 1.05 348 1.50 316 1.50 284 1.50
 381  0.608  0.116  0.851-  61 1.05 349 1.50 317 1.50 285 1.50
 382  0.892  0.384  0.851-  62 1.05 350 1.50 318 1.50 286 1.50
 383  0.116  0.892  0.851-  63 1.05 351 1.50 319 1.50 287 1.50
 384  0.384  0.608  0.851-  64 1.05 352 1.50 320 1.50 288 1.50
 385  0.497  0.485  0.403-  65 1.06 353 1.50 289 1.51 321 1.51
 386  0.003  0.015  0.403-  66 1.06 354 1.50 290 1.51 322 1.51
 387  0.015  0.497  0.403-  67 1.06 355 1.50 291 1.51 323 1.51
 388  0.485  0.003  0.403-  68 1.06 356 1.50 292 1.51 324 1.51
 389  0.503  0.985  0.097-  69 1.06 357 1.50 293 1.51 325 1.51
 390  0.997  0.515  0.097-  70 1.06 358 1.50 294 1.51 326 1.51
 391  0.985  0.997  0.097-  71 1.06 359 1.50 295 1.51 327 1.51
 392  0.515  0.503  0.097-  72 1.06 360 1.50 296 1.51 328 1.51
 393  0.503  0.515  0.597-  73 1.06 361 1.50 297 1.51 329 1.51
 394  0.997  0.985  0.597-  74 1.06 362 1.50 298 1.51 330 1.51
 395  0.985  0.503  0.597-  75 1.06 363 1.50 299 1.51 331 1.51
 396  0.515  0.997  0.597-  76 1.06 364 1.50 300 1.51 332 1.51
 397  0.497  0.015  0.903-  77 1.06 365 1.50 301 1.51 333 1.51
 398  0.003  0.485  0.903-  78 1.06 366 1.50 302 1.51 334 1.51
 399  0.015  0.003  0.903-  79 1.06 367 1.50 303 1.51 335 1.51
 400  0.485  0.497  0.903-  80 1.06 368 1.50 304 1.51 336 1.51
 401  0.250  0.250  0.653-   9 2.66
 402  0.750  0.750  0.847-  10 2.66
 403  0.750  0.750  0.347-  11 2.66
 404  0.250  0.250  0.153-  12 2.66
 405  0.250  0.250  0.833-   9 2.53
 406  0.750  0.750  0.667-  10 2.53
 407  0.750  0.750  0.167-  11 2.53
 408  0.250  0.250  0.333-  12 2.53
 409  0.646  0.349  0.673-   1 2.23
 410  0.854  0.151  0.673-   2 2.23
 411  0.151  0.646  0.673-   3 2.23
 412  0.349  0.854  0.673-   4 2.23
 413  0.354  0.849  0.827-   4 2.23
 414  0.146  0.651  0.827-   3 2.23
 415  0.849  0.146  0.827-   2 2.23
 416  0.651  0.354  0.827-   1 2.23
 417  0.354  0.651  0.327-   5 2.23
 418  0.146  0.849  0.327-   6 2.23
 419  0.849  0.354  0.327-   7 2.23
 420  0.651  0.146  0.327-   8 2.23
 421  0.646  0.151  0.173-   8 2.23
 422  0.854  0.349  0.173-   7 2.23
 423  0.151  0.854  0.173-   6 2.23
 424  0.349  0.646  0.173-   5 2.23
 425  0.654  0.154  0.750-   1 2.46   2 2.46
 426  0.846  0.346  0.750-   1 2.46   2 2.46
 427  0.346  0.654  0.750-   3 2.46   4 2.46
 428  0.154  0.846  0.750-   3 2.46   4 2.46
 429  0.346  0.846  0.250-   5 2.46   6 2.46
 430  0.154  0.654  0.250-   5 2.46   6 2.46
 431  0.654  0.346  0.250-   7 2.46   8 2.46
 432  0.846  0.154  0.250-   7 2.46   8 2.46
 433  0.250  0.250  0.448-  13 2.44
 434  0.750  0.750  0.052-  14 2.44
 435  0.750  0.750  0.552-  15 2.44
 436  0.250  0.250  0.948-  16 2.44
 437  0.445  0.284  0.530-  13 2.65
 438  0.055  0.216  0.530-  13 2.65
 439  0.216  0.445  0.530-  13 2.65
 440  0.284  0.055  0.530-  13 2.65
 441  0.555  0.784  0.970-  14 2.65
 442  0.945  0.716  0.970-  14 2.65
 443  0.784  0.945  0.970-  14 2.65
 444  0.716  0.555  0.970-  14 2.65
 445  0.555  0.716  0.470-  15 2.65
 446  0.945  0.784  0.470-  15 2.65
 447  0.784  0.555  0.470-  15 2.65
 448  0.716  0.945  0.470-  15 2.65
 449  0.445  0.216  0.030-  16 2.65
 450  0.055  0.284  0.030-  16 2.65
 451  0.216  0.055  0.030-  16 2.65
 452  0.284  0.445  0.030-  16 2.65
 453  0.750  0.250  0.500-
 454  0.250  0.750  0.500-
 455  0.250  0.750  0.000-
 456  0.750  0.250  0.000-
 457  0.425  0.322  0.747-   9 2.53
 458  0.075  0.178  0.747-   9 2.53
 459  0.178  0.425  0.747-   9 2.53
 460  0.322  0.075  0.747-   9 2.53
 461  0.575  0.822  0.753-  10 2.53
 462  0.925  0.678  0.753-  10 2.53
 463  0.822  0.925  0.753-  10 2.53
 464  0.678  0.575  0.753-  10 2.53
 465  0.575  0.678  0.253-  11 2.53
 466  0.925  0.822  0.253-  11 2.53
 467  0.822  0.575  0.253-  11 2.53
 468  0.678  0.925  0.253-  11 2.53
 469  0.425  0.178  0.247-  12 2.53
 470  0.075  0.322  0.247-  12 2.53
 471  0.178  0.075  0.247-  12 2.53
 472  0.322  0.425  0.247-  12 2.53
 473  0.342  0.557  0.454-  33 0.99  17 0.99
 474  0.158  0.943  0.454-  34 0.99  18 0.99
 475  0.943  0.342  0.454-  35 0.99  19 0.99
 476  0.557  0.158  0.454-  36 0.99  20 0.99
 477  0.658  0.057  0.046-  37 0.99  21 0.99
 478  0.842  0.443  0.046-  38 0.99  22 0.99
 479  0.057  0.842  0.046-  39 0.99  23 0.99
 480  0.443  0.658  0.046-  40 0.99  24 0.99
 481  0.658  0.443  0.546-  41 0.99  25 0.99
 482  0.842  0.057  0.546-  42 0.99  26 0.99
 483  0.057  0.658  0.546-  43 0.99  27 0.99
 484  0.443  0.842  0.546-  44 0.99  28 0.99
 485  0.342  0.943  0.954-  45 0.99  29 0.99
 486  0.158  0.557  0.954-  46 0.99  30 0.99
 487  0.943  0.158  0.954-  47 0.99  31 0.99
 488  0.557  0.342  0.954-  48 0.99  32 0.99
 
  LATTYP: Found a simple tetragonal cell.
 ALAT       =    13.3917421628
 C/A-ratio  =     2.1453360423
  
  Lattice vectors:
  
 A1 = (  13.3917421628,   0.0000000000,   0.0000000000)
 A2 = (   0.0000000000,  13.3917421628,   0.0000000000)
 A3 = (   0.0000000000,   0.0000000000,  28.7297871307)


Analysis of symmetry for initial positions (statically):
=====================================================================
 Subroutine PRICEL returns:
 Original cell was already a primitive cell.
 

 Routine SETGRP: Setting up the symmetry group for a 
 simple tetragonal supercell.


 Subroutine GETGRP returns: Found 16 space group operations
 (whereof  2 operations were pure point group operations)
 out of a pool of 16 trial point group operations.


The static configuration has the point symmetry S_2 .
 The point group associated with its full space group is D_4h.


Analysis of symmetry for dynamics (positions and initial velocities):
=====================================================================
 Subroutine PRICEL returns:
 Original cell was already a primitive cell.
 

 Routine SETGRP: Setting up the symmetry group for a 
 simple tetragonal supercell.


 Subroutine GETGRP returns: Found 16 space group operations
 (whereof  2 operations were pure point group operations)
 out of a pool of 16 trial point group operations.


The dynamic configuration has the point symmetry S_2 .
 The point group associated with its full space group is D_4h.


Analysis of structural, dynamic, and magnetic symmetry:
=====================================================================
 Subroutine PRICEL returns:
 Original cell was already a primitive cell.
 

 Routine SETGRP: Setting up the symmetry group for a 
 simple tetragonal supercell.


 Subroutine GETGRP returns: Found 16 space group operations
 (whereof  2 operations were pure point group operations)
 out of a pool of 16 trial point group operations.


The overall configuration has the point symmetry S_2 .
 The point group associated with its full space group is D_4h.


 Subroutine INISYM returns: Found 16 space group operations
 (whereof  2 operations are pure point group operations),
 and found     1 'primitive' translations


----------------------------------------------------------------------------------------

                                     Primitive cell                                     

  volume of cell :    5152.3643

  direct lattice vectors                    reciprocal lattice vectors
    13.391742163  0.000000000  0.000000000     0.074672883  0.000000000  0.000000000
     0.000000000 13.391742163  0.000000000     0.000000000  0.074672883  0.000000000
     0.000000000  0.000000000 28.729787131     0.000000000  0.000000000  0.034807080

  length of vectors
    13.391742163 13.391742163 28.729787131     0.074672883  0.074672883  0.034807080

  position of ions in fractional coordinates (direct lattice)
     0.662000779  0.337999221  0.750000000
     0.837999221  0.162000779  0.750000000
     0.162000779  0.662000779  0.750000000
     0.337999221  0.837999221  0.750000000
     0.337999221  0.662000779  0.250000000
     0.162000779  0.837999221  0.250000000
     0.837999221  0.337999221  0.250000000
     0.662000779  0.162000779  0.250000000
     0.250000000  0.250000000  0.745194999
     0.750000000  0.750000000  0.754805001
     0.750000000  0.750000000  0.254805001
     0.250000000  0.250000000  0.245194999
     0.250000000  0.250000000  0.533326740
     0.750000000  0.750000000  0.966673260
     0.750000000  0.750000000  0.466673260
     0.250000000  0.250000000  0.033326740
     0.327134911  0.623525486  0.466668937
     0.172865089  0.876474514  0.466668937
     0.876474514  0.327134911  0.466668937
     0.623525486  0.172865089  0.466668937
     0.672865089  0.123525486  0.033331063
     0.827134911  0.376474514  0.033331063
     0.123525486  0.827134911  0.033331063
     0.376474514  0.672865089  0.033331063
     0.672865089  0.376474514  0.533331063
     0.827134911  0.123525486  0.533331063
     0.123525486  0.672865089  0.533331063
     0.376474514  0.827134911  0.533331063
     0.327134911  0.876474514  0.966668937
     0.172865089  0.623525486  0.966668937
     0.876474514  0.172865089  0.966668937
     0.623525486  0.327134911  0.966668937
     0.308349845  0.510305845  0.475139685
     0.191650155  0.989694155  0.475139685
     0.989694155  0.308349845  0.475139685
     0.510305845  0.191650155  0.475139685
     0.691650155  0.010305845  0.024860315
     0.808349845  0.489694155  0.024860315
     0.010305845  0.808349845  0.024860315
     0.489694155  0.691650155  0.024860315
     0.691650155  0.489694155  0.524860315
     0.808349845  0.010305845  0.524860315
     0.010305845  0.691650155  0.524860315
     0.489694155  0.808349845  0.524860315
     0.308349845  0.989694155  0.975139685
     0.191650155  0.510305845  0.975139685
     0.989694155  0.191650155  0.975139685
     0.510305845  0.308349845  0.975139685
     0.653239443  0.342262994  0.328917700
     0.846760557  0.157737006  0.328917700
     0.157737006  0.653239443  0.328917700
     0.342262994  0.846760557  0.328917700
     0.346760557  0.842262994  0.171082300
     0.153239443  0.657737006  0.171082300
     0.842262994  0.153239443  0.171082300
     0.657737006  0.346760557  0.171082300
     0.346760557  0.657737006  0.671082300
     0.153239443  0.842262994  0.671082300
     0.842262994  0.346760557  0.671082300
     0.657737006  0.153239443  0.671082300
     0.653239443  0.157737006  0.828917700
     0.846760557  0.342262994  0.828917700
     0.157737006  0.846760557  0.828917700
     0.342262994  0.653239443  0.828917700
     0.446618604  0.525725270  0.424068841
     0.053381396  0.974274730  0.424068841
     0.974274730  0.446618604  0.424068841
     0.525725270  0.053381396  0.424068841
     0.553381396  0.025725270  0.075931159
     0.946618604  0.474274730  0.075931159
     0.025725270  0.946618604  0.075931159
     0.474274730  0.553381396  0.075931159
     0.553381396  0.474274730  0.575931159
     0.946618604  0.025725270  0.575931159
     0.025725270  0.553381396  0.575931159
     0.474274730  0.946618604  0.575931159
     0.446618604  0.974274730  0.924068841
     0.053381396  0.525725270  0.924068841
     0.974274730  0.053381396  0.924068841
     0.525725270  0.446618604  0.924068841
     0.577211785  0.499252869  0.303521427
     0.922788215  0.000747131  0.303521427
     0.000747131  0.577211785  0.303521427
     0.499252869  0.922788215  0.303521427
     0.422788215  0.999252869  0.196478573
     0.077211785  0.500747131  0.196478573
     0.999252869  0.077211785  0.196478573
     0.500747131  0.422788215  0.196478573
     0.422788215  0.500747131  0.696478573
     0.077211785  0.999252869  0.696478573
     0.999252869  0.422788215  0.696478573
     0.500747131  0.077211785  0.696478573
     0.577211785  0.000747131  0.803521427
     0.922788215  0.499252869  0.803521427
     0.000747131  0.922788215  0.803521427
     0.499252869  0.577211785  0.803521427
     0.693194522  0.510562867  0.332605076
     0.806805478  0.989437133  0.332605076
     0.989437133  0.693194522  0.332605076
     0.510562867  0.806805478  0.332605076
     0.306805478  0.010562867  0.167394924
     0.193194522  0.489437133  0.167394924
     0.010562867  0.193194522  0.167394924
     0.489437133  0.306805478  0.167394924
     0.306805478  0.489437133  0.667394924
     0.193194522  0.010562867  0.667394924
     0.010562867  0.306805478  0.667394924
     0.489437133  0.193194522  0.667394924
     0.693194522  0.989437133  0.832605076
     0.806805478  0.510562867  0.832605076
     0.989437133  0.806805478  0.832605076
     0.510562867  0.693194522  0.832605076
     0.518982629  0.613390168  0.360177214
     0.981017371  0.886609832  0.360177214
     0.886609832  0.518982629  0.360177214
     0.613390168  0.981017371  0.360177214
     0.481017371  0.113390168  0.139822786
     0.018982629  0.386609832  0.139822786
     0.113390168  0.018982629  0.139822786
     0.386609832  0.481017371  0.139822786
     0.481017371  0.386609832  0.639822786
     0.018982629  0.113390168  0.639822786
     0.113390168  0.481017371  0.639822786
     0.386609832  0.018982629  0.639822786
     0.518982629  0.886609832  0.860177214
     0.981017371  0.613390168  0.860177214
     0.886609832  0.981017371  0.860177214
     0.613390168  0.518982629  0.860177214
     0.618002511  0.585289191  0.399996643
     0.881997489  0.914710809  0.399996643
     0.914710809  0.618002511  0.399996643
     0.585289191  0.881997489  0.399996643
     0.381997489  0.085289191  0.100003357
     0.118002511  0.414710809  0.100003357
     0.085289191  0.118002511  0.100003357
     0.414710809  0.381997489  0.100003357
     0.381997489  0.414710809  0.600003357
     0.118002511  0.085289191  0.600003357
     0.085289191  0.381997489  0.600003357
     0.414710809  0.118002511  0.600003357
     0.618002511  0.914710809  0.899996643
     0.881997489  0.585289191  0.899996643
     0.914710809  0.881997489  0.899996643
     0.585289191  0.618002511  0.899996643
     0.485781446  0.341306871  0.308651331
     0.014218554  0.158693129  0.308651331
     0.158693129  0.485781446  0.308651331
     0.341306871  0.014218554  0.308651331
     0.514218554  0.841306871  0.191348669
     0.985781446  0.658693129  0.191348669
     0.841306871  0.985781446  0.191348669
     0.658693129  0.514218554  0.191348669
     0.514218554  0.658693129  0.691348669
     0.985781446  0.841306871  0.691348669
     0.841306871  0.514218554  0.691348669
     0.658693129  0.985781446  0.691348669
     0.485781446  0.158693129  0.808651331
     0.014218554  0.341306871  0.808651331
     0.158693129  0.014218554  0.808651331
     0.341306871  0.485781446  0.808651331
     0.498734118  0.273077578  0.361363926
     0.001265882  0.226922422  0.361363926
     0.226922422  0.498734118  0.361363926
     0.273077578  0.001265882  0.361363926
     0.501265882  0.773077578  0.138636074
     0.998734118  0.726922422  0.138636074
     0.773077578  0.998734118  0.138636074
     0.726922422  0.501265882  0.138636074
     0.501265882  0.726922422  0.638636074
     0.998734118  0.773077578  0.638636074
     0.773077578  0.501265882  0.638636074
     0.726922422  0.998734118  0.638636074
     0.498734118  0.226922422  0.861363926
     0.001265882  0.273077578  0.861363926
     0.226922422  0.001265882  0.861363926
     0.273077578  0.498734118  0.861363926
     0.376346063  0.385876425  0.390833249
     0.123653937  0.114123575  0.390833249
     0.114123575  0.376346063  0.390833249
     0.385876425  0.123653937  0.390833249
     0.623653937  0.885876425  0.109166751
     0.876346063  0.614123575  0.109166751
     0.885876425  0.876346063  0.109166751
     0.614123575  0.623653937  0.109166751
     0.623653937  0.614123575  0.609166751
     0.876346063  0.885876425  0.609166751
     0.885876425  0.623653937  0.609166751
     0.614123575  0.876346063  0.609166751
     0.376346063  0.114123575  0.890833249
     0.123653937  0.385876425  0.890833249
     0.114123575  0.123653937  0.890833249
     0.385876425  0.376346063  0.890833249
     0.398465142  0.474757224  0.345464793
     0.101534858  0.025242776  0.345464793
     0.025242776  0.398465142  0.345464793
     0.474757224  0.101534858  0.345464793
     0.601534858  0.974757224  0.154535207
     0.898465142  0.525242776  0.154535207
     0.974757224  0.898465142  0.154535207
     0.525242776  0.601534858  0.154535207
     0.601534858  0.525242776  0.654535207
     0.898465142  0.974757224  0.654535207
     0.974757224  0.601534858  0.654535207
     0.525242776  0.898465142  0.654535207
     0.398465142  0.025242776  0.845464793
     0.101534858  0.474757224  0.845464793
     0.025242776  0.101534858  0.845464793
     0.474757224  0.398465142  0.845464793
     0.712894022  0.407392634  0.404597012
     0.787105978  0.092607366  0.404597012
     0.092607366  0.712894022  0.404597012
     0.407392634  0.787105978  0.404597012
     0.287105978  0.907392634  0.095402988
     0.212894022  0.592607366  0.095402988
     0.907392634  0.212894022  0.095402988
     0.592607366  0.287105978  0.095402988
     0.287105978  0.592607366  0.595402988
     0.212894022  0.907392634  0.595402988
     0.907392634  0.287105978  0.595402988
     0.592607366  0.212894022  0.595402988
     0.712894022  0.092607366  0.904597012
     0.787105978  0.407392634  0.904597012
     0.092607366  0.787105978  0.904597012
     0.407392634  0.712894022  0.904597012
     0.648061120  0.290965466  0.407422407
     0.851938880  0.209034534  0.407422407
     0.209034534  0.648061120  0.407422407
     0.290965466  0.851938880  0.407422407
     0.351938880  0.790965466  0.092577593
     0.148061120  0.709034534  0.092577593
     0.790965466  0.148061120  0.092577593
     0.709034534  0.351938880  0.092577593
     0.351938880  0.709034534  0.592577593
     0.148061120  0.790965466  0.592577593
     0.790965466  0.351938880  0.592577593
     0.709034534  0.148061120  0.592577593
     0.648061120  0.209034534  0.907422407
     0.851938880  0.290965466  0.907422407
     0.209034534  0.851938880  0.907422407
     0.290965466  0.648061120  0.907422407
     0.510647750  0.362510448  0.448105137
     0.989352250  0.137489552  0.448105137
     0.137489552  0.510647750  0.448105137
     0.362510448  0.989352250  0.448105137
     0.489352250  0.862510448  0.051894863
     0.010647750  0.637489552  0.051894863
     0.862510448  0.010647750  0.051894863
     0.637489552  0.489352250  0.051894863
     0.489352250  0.637489552  0.551894863
     0.010647750  0.862510448  0.551894863
     0.862510448  0.489352250  0.551894863
     0.637489552  0.010647750  0.551894863
     0.510647750  0.137489552  0.948105137
     0.989352250  0.362510448  0.948105137
     0.137489552  0.989352250  0.948105137
     0.362510448  0.510647750  0.948105137
     0.593655364  0.463414053  0.459607718
     0.906344636  0.036585947  0.459607718
     0.036585947  0.593655364  0.459607718
     0.463414053  0.906344636  0.459607718
     0.406344636  0.963414053  0.040392282
     0.093655364  0.536585947  0.040392282
     0.963414053  0.093655364  0.040392282
     0.536585947  0.406344636  0.040392282
     0.406344636  0.536585947  0.540392282
     0.093655364  0.963414053  0.540392282
     0.963414053  0.406344636  0.540392282
     0.536585947  0.093655364  0.540392282
     0.593655364  0.036585947  0.959607718
     0.906344636  0.463414053  0.959607718
     0.036585947  0.906344636  0.959607718
     0.463414053  0.593655364  0.959607718
     0.614290996  0.491590395  0.337254184
     0.885709004  0.008409605  0.337254184
     0.008409605  0.614290996  0.337254184
     0.491590395  0.885709004  0.337254184
     0.385709004  0.991590395  0.162745816
     0.114290996  0.508409605  0.162745816
     0.991590395  0.114290996  0.162745816
     0.508409605  0.385709004  0.162745816
     0.385709004  0.508409605  0.662745816
     0.114290996  0.991590395  0.662745816
     0.991590395  0.385709004  0.662745816
     0.508409605  0.114290996  0.662745816
     0.614290996  0.008409605  0.837254184
     0.885709004  0.491590395  0.837254184
     0.008409605  0.885709004  0.837254184
     0.491590395  0.614290996  0.837254184
     0.564391779  0.553761779  0.375345311
     0.935608221  0.946238221  0.375345311
     0.946238221  0.564391779  0.375345311
     0.553761779  0.935608221  0.375345311
     0.435608221  0.053761779  0.124654689
     0.064391779  0.446238221  0.124654689
     0.053761779  0.064391779  0.124654689
     0.446238221  0.435608221  0.124654689
     0.435608221  0.446238221  0.624654689
     0.064391779  0.053761779  0.624654689
     0.053761779  0.435608221  0.624654689
     0.446238221  0.064391779  0.624654689
     0.564391779  0.946238221  0.875345311
     0.935608221  0.553761779  0.875345311
     0.946238221  0.935608221  0.875345311
     0.553761779  0.564391779  0.875345311
     0.502026160  0.347593673  0.345902399
     0.997973840  0.152406327  0.345902399
     0.152406327  0.502026160  0.345902399
     0.347593673  0.997973840  0.345902399
     0.497973840  0.847593673  0.154097601
     0.002026160  0.652406327  0.154097601
     0.847593673  0.002026160  0.154097601
     0.652406327  0.497973840  0.154097601
     0.497973840  0.652406327  0.654097601
     0.002026160  0.847593673  0.654097601
     0.847593673  0.497973840  0.654097601
     0.652406327  0.002026160  0.654097601
     0.502026160  0.152406327  0.845902399
     0.997973840  0.347593673  0.845902399
     0.152406327  0.997973840  0.845902399
     0.347593673  0.502026160  0.845902399
     0.433911560  0.423261214  0.370107389
     0.066088440  0.076738786  0.370107389
     0.076738786  0.433911560  0.370107389
     0.423261214  0.066088440  0.370107389
     0.566088440  0.923261214  0.129892611
     0.933911560  0.576738786  0.129892611
     0.923261214  0.933911560  0.129892611
     0.576738786  0.566088440  0.129892611
     0.566088440  0.576738786  0.629892611
     0.933911560  0.923261214  0.629892611
     0.923261214  0.566088440  0.629892611
     0.576738786  0.933911560  0.629892611
     0.433911560  0.076738786  0.870107389
     0.066088440  0.423261214  0.870107389
     0.076738786  0.066088440  0.870107389
     0.423261214  0.433911560  0.870107389
     0.640155579  0.370957180  0.400785772
     0.859844421  0.129042820  0.400785772
     0.129042820  0.640155579  0.400785772
[...]
   50        0.005  -0.002   0.000   0.003
   51        0.005  -0.002   0.000   0.003
   52        0.005  -0.002   0.000   0.003
   53        0.005  -0.002   0.000   0.003
   54        0.005  -0.002   0.000   0.003
   55        0.005  -0.002   0.000   0.003
   56        0.005  -0.002   0.000   0.003
   57        0.005  -0.002   0.000   0.003
   58        0.005  -0.002   0.000   0.003
   59        0.005  -0.002   0.000   0.003
   60        0.005  -0.002   0.000   0.003
   61        0.005  -0.002   0.000   0.003
   62        0.005  -0.002   0.000   0.003
   63        0.005  -0.002   0.000   0.003
   64        0.005  -0.002   0.000   0.003
   65        0.007  -0.002   0.000   0.006
   66        0.007  -0.002   0.000   0.006
   67        0.007  -0.002   0.000   0.006
   68        0.007  -0.002   0.000   0.006
   69        0.007  -0.002   0.000   0.006
   70        0.007  -0.002   0.000   0.006
   71        0.007  -0.002   0.000   0.006
   72        0.007  -0.002   0.000   0.006
   73        0.007  -0.002   0.000   0.006
   74        0.007  -0.002   0.000   0.006
   75        0.007  -0.002   0.000   0.006
   76        0.007  -0.002   0.000   0.006
   77        0.007  -0.002   0.000   0.006
   78        0.007  -0.002   0.000   0.006
   79        0.007  -0.002   0.000   0.006
   80        0.007  -0.002   0.000   0.006
   81        0.006  -0.008   0.000  -0.003
   82        0.006  -0.008   0.000  -0.003
   83        0.006  -0.008   0.000  -0.003
   84        0.006  -0.008   0.000  -0.003
   85        0.006  -0.008   0.000  -0.003
   86        0.006  -0.008   0.000  -0.003
   87        0.006  -0.008   0.000  -0.003
   88        0.006  -0.008   0.000  -0.003
   89        0.006  -0.008   0.000  -0.003
   90        0.006  -0.008   0.000  -0.003
   91        0.006  -0.008   0.000  -0.003
   92        0.006  -0.008   0.000  -0.003
   93        0.006  -0.008   0.000  -0.003
   94        0.006  -0.008   0.000  -0.003
   95        0.006  -0.008   0.000  -0.003
   96        0.006  -0.008   0.000  -0.003
   97        0.006  -0.009   0.000  -0.003
   98        0.006  -0.009   0.000  -0.003
   99        0.006  -0.009   0.000  -0.003
  100        0.006  -0.009   0.000  -0.003
  101        0.006  -0.009   0.000  -0.003
  102        0.006  -0.009   0.000  -0.003
  103        0.006  -0.009   0.000  -0.003
  104        0.006  -0.009   0.000  -0.003
  105        0.006  -0.009   0.000  -0.003
  106        0.006  -0.009   0.000  -0.003
  107        0.006  -0.009   0.000  -0.003
  108        0.006  -0.009   0.000  -0.003
  109        0.006  -0.009   0.000  -0.003
  110        0.006  -0.009   0.000  -0.003
  111        0.006  -0.009   0.000  -0.003
  112        0.006  -0.009   0.000  -0.003
  113        0.001  -0.007   0.000  -0.005
  114        0.001  -0.007   0.000  -0.005
  115        0.001  -0.007   0.000  -0.005
  116        0.001  -0.007   0.000  -0.005
  117        0.001  -0.007   0.000  -0.005
  118        0.001  -0.007   0.000  -0.005
  119        0.001  -0.007   0.000  -0.005
  120        0.001  -0.007   0.000  -0.005
  121        0.001  -0.007   0.000  -0.005
  122        0.001  -0.007   0.000  -0.005
  123        0.001  -0.007   0.000  -0.005
  124        0.001  -0.007   0.000  -0.005
  125        0.001  -0.007   0.000  -0.005
  126        0.001  -0.007   0.000  -0.005
  127        0.001  -0.007   0.000  -0.005
  128        0.001  -0.007   0.000  -0.005
  129        0.005  -0.008   0.000  -0.003
  130        0.005  -0.008   0.000  -0.003
  131        0.005  -0.008   0.000  -0.003
  132        0.005  -0.008   0.000  -0.003
  133        0.005  -0.008   0.000  -0.003
  134        0.005  -0.008   0.000  -0.003
  135        0.005  -0.008   0.000  -0.003
  136        0.005  -0.008   0.000  -0.003
  137        0.005  -0.008   0.000  -0.003
  138        0.005  -0.008   0.000  -0.003
  139        0.005  -0.008   0.000  -0.003
  140        0.005  -0.008   0.000  -0.003
  141        0.005  -0.008   0.000  -0.003
  142        0.005  -0.008   0.000  -0.003
  143        0.005  -0.008   0.000  -0.003
  144        0.005  -0.008   0.000  -0.003
  145        0.006  -0.008   0.000  -0.002
  146        0.006  -0.008   0.000  -0.002
  147        0.006  -0.008   0.000  -0.002
  148        0.006  -0.008   0.000  -0.002
  149        0.006  -0.008   0.000  -0.002
  150        0.006  -0.008   0.000  -0.002
  151        0.006  -0.008   0.000  -0.002
  152        0.006  -0.008   0.000  -0.002
  153        0.006  -0.008   0.000  -0.002
  154        0.006  -0.008   0.000  -0.002
  155        0.006  -0.008   0.000  -0.002
  156        0.006  -0.008   0.000  -0.002
  157        0.006  -0.008   0.000  -0.002
  158        0.006  -0.008   0.000  -0.002
  159        0.006  -0.008   0.000  -0.002
  160        0.006  -0.008   0.000  -0.002
  161        0.006  -0.009   0.000  -0.003
  162        0.006  -0.009   0.000  -0.003
  163        0.006  -0.009   0.000  -0.003
  164        0.006  -0.009   0.000  -0.003
  165        0.006  -0.009   0.000  -0.003
  166        0.006  -0.009   0.000  -0.003
  167        0.006  -0.009   0.000  -0.003
  168        0.006  -0.009   0.000  -0.003
  169        0.006  -0.009   0.000  -0.003
  170        0.006  -0.009   0.000  -0.003
  171        0.006  -0.009   0.000  -0.003
  172        0.006  -0.009   0.000  -0.003
  173        0.006  -0.009   0.000  -0.003
  174        0.006  -0.009   0.000  -0.003
  175        0.006  -0.009   0.000  -0.003
  176        0.006  -0.009   0.000  -0.003
  177        0.006  -0.009   0.000  -0.003
  178        0.006  -0.009   0.000  -0.003
  179        0.006  -0.009   0.000  -0.003
  180        0.006  -0.009   0.000  -0.003
  181        0.006  -0.009   0.000  -0.003
  182        0.006  -0.009   0.000  -0.003
  183        0.006  -0.009   0.000  -0.003
  184        0.006  -0.009   0.000  -0.003
  185        0.006  -0.009   0.000  -0.003
  186        0.006  -0.009   0.000  -0.003
  187        0.006  -0.009   0.000  -0.003
  188        0.006  -0.009   0.000  -0.003
  189        0.006  -0.009   0.000  -0.003
  190        0.006  -0.009   0.000  -0.003
  191        0.006  -0.009   0.000  -0.003
  192        0.006  -0.009   0.000  -0.003
  193        0.000  -0.006   0.000  -0.006
  194        0.000  -0.006   0.000  -0.006
  195        0.000  -0.006   0.000  -0.006
  196        0.000  -0.006   0.000  -0.006
  197        0.000  -0.006   0.000  -0.006
  198        0.000  -0.006   0.000  -0.006
  199        0.000  -0.006   0.000  -0.006
  200        0.000  -0.006   0.000  -0.006
  201        0.000  -0.006   0.000  -0.006
  202        0.000  -0.006   0.000  -0.006
  203        0.000  -0.006   0.000  -0.006
  204        0.000  -0.006   0.000  -0.006
  205        0.000  -0.006   0.000  -0.006
  206        0.000  -0.006   0.000  -0.006
  207        0.000  -0.006   0.000  -0.006
  208        0.000  -0.006   0.000  -0.006
  209        0.006  -0.009   0.000  -0.003
  210        0.006  -0.009   0.000  -0.003
  211        0.006  -0.009   0.000  -0.003
  212        0.006  -0.009   0.000  -0.003
  213        0.006  -0.009   0.000  -0.003
  214        0.006  -0.009   0.000  -0.003
  215        0.006  -0.009   0.000  -0.003
  216        0.006  -0.009   0.000  -0.003
  217        0.006  -0.009   0.000  -0.003
  218        0.006  -0.009   0.000  -0.003
  219        0.006  -0.009   0.000  -0.003
  220        0.006  -0.009   0.000  -0.003
  221        0.006  -0.009   0.000  -0.003
  222        0.006  -0.009   0.000  -0.003
  223        0.006  -0.009   0.000  -0.003
  224        0.006  -0.009   0.000  -0.003
  225        0.007  -0.009   0.000  -0.003
  226        0.007  -0.009   0.000  -0.003
  227        0.007  -0.009   0.000  -0.003
  228        0.007  -0.009   0.000  -0.003
  229        0.007  -0.009   0.000  -0.003
  230        0.007  -0.009   0.000  -0.003
  231        0.007  -0.009   0.000  -0.003
  232        0.007  -0.009   0.000  -0.003
  233        0.007  -0.009   0.000  -0.003
  234        0.007  -0.009   0.000  -0.003
  235        0.007  -0.009   0.000  -0.003
  236        0.007  -0.009   0.000  -0.003
  237        0.007  -0.009   0.000  -0.003
  238        0.007  -0.009   0.000  -0.003
  239        0.007  -0.009   0.000  -0.003
  240        0.007  -0.009   0.000  -0.003
  241        0.006  -0.009   0.000  -0.004
  242        0.006  -0.009   0.000  -0.004
  243        0.006  -0.009   0.000  -0.004
  244        0.006  -0.009   0.000  -0.004
  245        0.006  -0.009   0.000  -0.004
  246        0.006  -0.009   0.000  -0.004
  247        0.006  -0.009   0.000  -0.004
  248        0.006  -0.009   0.000  -0.004
  249        0.006  -0.009   0.000  -0.004
  250        0.006  -0.009   0.000  -0.004
  251        0.006  -0.009   0.000  -0.004
  252        0.006  -0.009   0.000  -0.004
  253        0.006  -0.009   0.000  -0.004
  254        0.006  -0.009   0.000  -0.004
  255        0.006  -0.009   0.000  -0.004
  256        0.006  -0.009   0.000  -0.004
  257        0.006  -0.009   0.000  -0.003
  258        0.006  -0.009   0.000  -0.003
  259        0.006  -0.009   0.000  -0.003
  260        0.006  -0.009   0.000  -0.003
  261        0.006  -0.009   0.000  -0.003
  262        0.006  -0.009   0.000  -0.003
  263        0.006  -0.009   0.000  -0.003
  264        0.006  -0.009   0.000  -0.003
  265        0.006  -0.009   0.000  -0.003
  266        0.006  -0.009   0.000  -0.003
  267        0.006  -0.009   0.000  -0.003
  268        0.006  -0.009   0.000  -0.003
  269        0.006  -0.009   0.000  -0.003
  270        0.006  -0.009   0.000  -0.003
  271        0.006  -0.009   0.000  -0.003
  272        0.006  -0.009   0.000  -0.003
  273       -0.030  -0.116   0.000  -0.146
  274       -0.030  -0.116   0.000  -0.146
  275       -0.030  -0.116   0.000  -0.146
  276       -0.030  -0.116   0.000  -0.146
  277       -0.030  -0.116   0.000  -0.146
  278       -0.030  -0.116   0.000  -0.146
  279       -0.030  -0.116   0.000  -0.146
  280       -0.030  -0.116   0.000  -0.146
  281       -0.030  -0.116   0.000  -0.146
  282       -0.030  -0.116   0.000  -0.146
  283       -0.030  -0.116   0.000  -0.146
  284       -0.030  -0.116   0.000  -0.146
  285       -0.030  -0.116   0.000  -0.146
  286       -0.030  -0.116   0.000  -0.146
  287       -0.030  -0.116   0.000  -0.146
  288       -0.030  -0.116   0.000  -0.146
  289       -0.029  -0.106   0.000  -0.134
  290       -0.029  -0.106   0.000  -0.134
  291       -0.029  -0.106   0.000  -0.134
  292       -0.029  -0.106   0.000  -0.134
  293       -0.029  -0.106   0.000  -0.134
  294       -0.029  -0.106   0.000  -0.134
  295       -0.029  -0.106   0.000  -0.134
  296       -0.029  -0.106   0.000  -0.134
  297       -0.029  -0.106   0.000  -0.134
  298       -0.029  -0.106   0.000  -0.134
  299       -0.029  -0.106   0.000  -0.134
  300       -0.029  -0.106   0.000  -0.134
  301       -0.029  -0.106   0.000  -0.134
  302       -0.029  -0.106   0.000  -0.134
  303       -0.029  -0.106   0.000  -0.134
  304       -0.029  -0.106   0.000  -0.134
  305       -0.031  -0.117   0.000  -0.148
  306       -0.031  -0.117   0.000  -0.148
  307       -0.031  -0.117   0.000  -0.148
  308       -0.031  -0.117   0.000  -0.148
  309       -0.031  -0.117   0.000  -0.148
  310       -0.031  -0.117   0.000  -0.148
  311       -0.031  -0.117   0.000  -0.148
  312       -0.031  -0.117   0.000  -0.148
  313       -0.031  -0.117   0.000  -0.148
  314       -0.031  -0.117   0.000  -0.148
  315       -0.031  -0.117   0.000  -0.148
  316       -0.031  -0.117   0.000  -0.148
  317       -0.031  -0.117   0.000  -0.148
  318       -0.031  -0.117   0.000  -0.148
  319       -0.031  -0.117   0.000  -0.148
  320       -0.031  -0.117   0.000  -0.148
  321       -0.030  -0.112   0.000  -0.142
  322       -0.030  -0.112   0.000  -0.142
  323       -0.030  -0.112   0.000  -0.142
  324       -0.030  -0.112   0.000  -0.142
  325       -0.030  -0.112   0.000  -0.142
  326       -0.030  -0.112   0.000  -0.142
  327       -0.030  -0.112   0.000  -0.142
  328       -0.030  -0.112   0.000  -0.142
  329       -0.030  -0.112   0.000  -0.142
  330       -0.030  -0.112   0.000  -0.142
  331       -0.030  -0.112   0.000  -0.142
  332       -0.030  -0.112   0.000  -0.142
  333       -0.030  -0.112   0.000  -0.142
  334       -0.030  -0.112   0.000  -0.142
  335       -0.030  -0.112   0.000  -0.142
  336       -0.030  -0.112   0.000  -0.142
  337       -0.033  -0.125   0.000  -0.158
  338       -0.033  -0.125   0.000  -0.158
  339       -0.033  -0.125   0.000  -0.158
  340       -0.033  -0.125   0.000  -0.158
  341       -0.033  -0.125   0.000  -0.158
  342       -0.033  -0.125   0.000  -0.158
  343       -0.033  -0.125   0.000  -0.158
  344       -0.033  -0.125   0.000  -0.158
  345       -0.033  -0.125   0.000  -0.158
  346       -0.033  -0.125   0.000  -0.158
  347       -0.033  -0.125   0.000  -0.158
  348       -0.033  -0.125   0.000  -0.158
  349       -0.033  -0.125   0.000  -0.158
  350       -0.033  -0.125   0.000  -0.158
  351       -0.033  -0.125   0.000  -0.158
  352       -0.033  -0.125   0.000  -0.158
  353       -0.032  -0.126   0.000  -0.158
  354       -0.032  -0.126   0.000  -0.158
  355       -0.032  -0.126   0.000  -0.158
  356       -0.032  -0.126   0.000  -0.158
  357       -0.032  -0.126   0.000  -0.158
  358       -0.032  -0.126   0.000  -0.158
  359       -0.032  -0.126   0.000  -0.158
  360       -0.032  -0.126   0.000  -0.158
  361       -0.032  -0.126   0.000  -0.158
  362       -0.032  -0.126   0.000  -0.158
  363       -0.032  -0.126   0.000  -0.158
  364       -0.032  -0.126   0.000  -0.158
  365       -0.032  -0.126   0.000  -0.158
  366       -0.032  -0.126   0.000  -0.158
  367       -0.032  -0.126   0.000  -0.158
  368       -0.032  -0.126   0.000  -0.158
  369       -0.008  -0.051   0.000  -0.059
  370       -0.008  -0.051   0.000  -0.059
  371       -0.008  -0.051   0.000  -0.059
  372       -0.008  -0.051   0.000  -0.059
  373       -0.008  -0.051   0.000  -0.059
  374       -0.008  -0.051   0.000  -0.059
  375       -0.008  -0.051   0.000  -0.059
  376       -0.008  -0.051   0.000  -0.059
  377       -0.008  -0.051   0.000  -0.059
  378       -0.008  -0.051   0.000  -0.059
  379       -0.008  -0.051   0.000  -0.059
  380       -0.008  -0.051   0.000  -0.059
  381       -0.008  -0.051   0.000  -0.059
  382       -0.008  -0.051   0.000  -0.059
  383       -0.008  -0.051   0.000  -0.059
  384       -0.008  -0.051   0.000  -0.059
  385       -0.011  -0.062   0.000  -0.073
  386       -0.011  -0.062   0.000  -0.073
  387       -0.011  -0.062   0.000  -0.073
  388       -0.011  -0.062   0.000  -0.073
  389       -0.011  -0.062   0.000  -0.073
  390       -0.011  -0.062   0.000  -0.073
  391       -0.011  -0.062   0.000  -0.073
  392       -0.011  -0.062   0.000  -0.073
  393       -0.011  -0.062   0.000  -0.073
  394       -0.011  -0.062   0.000  -0.073
  395       -0.011  -0.062   0.000  -0.073
  396       -0.011  -0.062   0.000  -0.073
  397       -0.011  -0.062   0.000  -0.073
  398       -0.011  -0.062   0.000  -0.073
  399       -0.011  -0.062   0.000  -0.073
  400       -0.011  -0.062   0.000  -0.073
  401       -0.044  -0.378   0.000  -0.422
  402       -0.044  -0.378   0.000  -0.422
  403       -0.044  -0.378   0.000  -0.422
  404       -0.044  -0.378   0.000  -0.422
  405       -0.044  -0.330   0.000  -0.374
  406       -0.044  -0.330   0.000  -0.374
  407       -0.044  -0.330   0.000  -0.374
  408       -0.044  -0.330   0.000  -0.374
  409       -0.040  -0.318   0.000  -0.358
  410       -0.040  -0.318   0.000  -0.358
  411       -0.040  -0.318   0.000  -0.358
  412       -0.040  -0.318   0.000  -0.358
  413       -0.040  -0.318   0.000  -0.358
  414       -0.040  -0.318   0.000  -0.358
  415       -0.040  -0.318   0.000  -0.358
  416       -0.040  -0.318   0.000  -0.358
  417       -0.040  -0.318   0.000  -0.358
  418       -0.040  -0.318   0.000  -0.358
  419       -0.040  -0.318   0.000  -0.358
  420       -0.040  -0.318   0.000  -0.358
  421       -0.040  -0.318   0.000  -0.358
  422       -0.040  -0.318   0.000  -0.358
  423       -0.040  -0.318   0.000  -0.358
  424       -0.040  -0.318   0.000  -0.358
  425       -0.027  -0.222   0.000  -0.249
  426       -0.027  -0.222   0.000  -0.249
  427       -0.027  -0.222   0.000  -0.249
  428       -0.027  -0.222   0.000  -0.249
  429       -0.027  -0.222   0.000  -0.249
  430       -0.027  -0.222   0.000  -0.249
  431       -0.027  -0.222   0.000  -0.249
  432       -0.027  -0.222   0.000  -0.249
  433       -0.045  -0.364   0.000  -0.408
  434       -0.045  -0.364   0.000  -0.408
  435       -0.045  -0.364   0.000  -0.408
  436       -0.045  -0.364   0.000  -0.408
  437       -0.046  -0.381   0.000  -0.426
  438       -0.046  -0.381   0.000  -0.426
  439       -0.046  -0.381   0.000  -0.426
  440       -0.046  -0.381   0.000  -0.426
  441       -0.046  -0.381   0.000  -0.426
  442       -0.046  -0.381   0.000  -0.426
  443       -0.046  -0.381   0.000  -0.426
  444       -0.046  -0.381   0.000  -0.426
  445       -0.046  -0.381   0.000  -0.426
  446       -0.046  -0.381   0.000  -0.426
  447       -0.046  -0.381   0.000  -0.426
  448       -0.046  -0.381   0.000  -0.426
  449       -0.046  -0.381   0.000  -0.426
  450       -0.046  -0.381   0.000  -0.426
  451       -0.046  -0.381   0.000  -0.426
  452       -0.046  -0.381   0.000  -0.426
  453       -0.051  -0.458   0.000  -0.509
  454       -0.051  -0.458   0.000  -0.509
  455       -0.051  -0.458   0.000  -0.509
  456       -0.051  -0.458   0.000  -0.509
  457       -0.041  -0.326   0.000  -0.367
  458       -0.041  -0.326   0.000  -0.367
  459       -0.041  -0.326   0.000  -0.367
  460       -0.041  -0.326   0.000  -0.367
  461       -0.041  -0.326   0.000  -0.367
  462       -0.041  -0.326   0.000  -0.367
  463       -0.041  -0.326   0.000  -0.367
  464       -0.041  -0.326   0.000  -0.367
  465       -0.041  -0.326   0.000  -0.367
  466       -0.041  -0.326   0.000  -0.367
  467       -0.041  -0.326   0.000  -0.367
  468       -0.041  -0.326   0.000  -0.367
  469       -0.041  -0.326   0.000  -0.367
  470       -0.041  -0.326   0.000  -0.367
  471       -0.041  -0.326   0.000  -0.367
  472       -0.041  -0.326   0.000  -0.367
  473       -0.024  -0.255   0.000  -0.279
  474       -0.024  -0.255   0.000  -0.279
  475       -0.024  -0.255   0.000  -0.279
  476       -0.024  -0.255   0.000  -0.279
  477       -0.024  -0.255   0.000  -0.279
  478       -0.024  -0.255   0.000  -0.279
  479       -0.024  -0.255   0.000  -0.279
  480       -0.024  -0.255   0.000  -0.279
  481       -0.024  -0.255   0.000  -0.279
  482       -0.024  -0.255   0.000  -0.279
  483       -0.024  -0.255   0.000  -0.279
  484       -0.024  -0.255   0.000  -0.279
  485       -0.024  -0.255   0.000  -0.279
  486       -0.024  -0.255   0.000  -0.279
  487       -0.024  -0.255   0.000  -0.279
  488       -0.024  -0.255   0.000  -0.279
--------------------------------------------------
tot         -5.399 -43.000  -2.838 -51.236
 

 total amount of memory used by VASP MPI-rank0   329973. kBytes
=======================================================================

   base      :      30000. kBytes
   nonlr-proj:      24300. kBytes
   fftplans  :       6200. kBytes
   grid      :      21611. kBytes
   one-center:        497. kBytes
   wavefun   :     247365. kBytes
 
  
  
 General timing and accounting informations for this job:
 ========================================================
  
                  Total CPU time used (sec):     1309.963
                            User time (sec):     1303.767
                          System time (sec):        6.196
                         Elapsed time (sec):     1325.000
  
                   Maximum memory used (kb):     1571336.
                   Average memory used (kb):          N/A
  
                          Minor page faults:        38087
                          Major page faults:            1
                 Voluntary context switches:         5535
