18
Lattice="11.562101 0.0 0.0 0.0 6.920533 0.0 0.0 2.923164 6.92298" Properties=species:S:1:pos:R:3:forces:R:3:magmoms:R:1 bandgap=2.511 e_per_atom_relaxed=-5.145146426111111 mp_id=mp-690 energy_per_atom=-5.140235076666667 ef_per_atom_relaxed=-5.145146426111111 corrected_total_energy=-92.52423138 ef_per_atom=-0.43630254554563497 task_id=mp-660056 calc_id=0 ionic_step=0 pretrained=T config_weight=1.0 mace_descriptors head=pbe_mp energy=-87.49423138 stress="-1.1824982186133771e-05 -0.0 -0.0 -0.0 -2.044141674196124e-05 -1.8416696147561212e-05 -0.0 -1.8416696147561212e-05 2.60886593009509e-05" pbc="T T T"
P        0.15757987       6.47442478       4.18719830       0.00077553      -0.00132603       0.00233679       0.00000000
P        5.93863037       3.36927222       2.73578170       0.00077553       0.00132603      -0.00233679       0.00000000
P        1.56134612       4.75445320       3.65275809      -0.00145019       0.00009816       0.00468965       0.00000000
P        7.34239662       5.08924380       3.27022191      -0.00145019      -0.00009816      -0.00468965       0.00000000
P        2.97510202       6.43559762       3.09027289       0.00223644      -0.00179695       0.00317687       0.00000000
P        8.75615252       3.40809938       3.83270711       0.00223644       0.00179695      -0.00317687       0.00000000
P        2.73264476       6.06553270       6.40653954      -0.00173976      -0.00083499       0.00221471       0.00000000
P        8.51369526       3.77816430       0.51644046      -0.00173976       0.00083499      -0.00221471       0.00000000
S        0.81870081       6.95995942       6.15691073      -0.00013997      -0.00196819       0.00082400       0.00000000
S        6.59975131       2.88373758       0.76606927      -0.00013997       0.00196819      -0.00082400       0.00000000
S        2.34015768       4.15528240       5.47477566      -0.00113453      -0.00005444       0.00270383       0.00000000
S        8.12120818       5.68841460       1.44820434      -0.00113453       0.00005444      -0.00270383       0.00000000
S        3.95416917       6.95472872       4.90347058      -0.00069184      -0.00222443       0.00204069       0.00000000
S        9.73521967       2.88896828       2.01950942      -0.00069184       0.00222443      -0.00204069       0.00000000
S        1.30020451       7.68477599       2.78781482       0.00137072      -0.00093433       0.00381672       0.00000000
S        7.08125501       2.15892101       4.13516518       0.00137072       0.00093433      -0.00381672       0.00000000
S        4.26658870       6.41633135       1.63903628       0.00077360      -0.00218008       0.00751564       0.00000000
S       10.04763920       3.42736565       5.28394372       0.00077360       0.00218008      -0.00751564       0.00000000
14
Lattice="4.861687 0.11036713 -0.85216816 -2.09503721 4.38850777 -0.85216816 -0.04907596 -0.07980287 8.74516082" Properties=species:S:1:pos:R:3:forces:R:3 bandgap=5.347200000000001 e_per_atom_relaxed=-7.519775662142857 mp_id=mp-2452 energy_per_atom=-7.516704982857143 ef_per_atom_relaxed=-7.519775662142857 corrected_total_energy=-105.23386976 ef_per_atom=-2.4357979733418365 task_id=mp-2452 calc_id=0 ionic_step=31 pretrained=T config_weight=1.0 mace_descriptors head=pbe_mp energy=-98.36386976 stress="4.126621194047073e-05 -7.153100882396798e-05 1.1024396293574977e-05 -7.153100882396798e-05 -3.106197491207332e-05 1.7926874994380148e-05 1.1024396293574977e-05 1.7926874994380148e-05 -1.6625545307669988e-05" pbc="T T T"
O        2.80325183       3.25785287       1.97064359      -0.00567691      -0.00331499      -0.00058179
O        0.57082190       2.22875975       4.66575797       0.00035395      -0.00534072       0.00386088
O        1.97392927       0.61273205       7.19539216      -0.00039705      -0.00656192      -0.00058179
O        0.01681957       2.62444312       0.29317756      -0.00492591      -0.00209379       0.00386088
O        0.02560490       0.04163637      -0.01577336       0.00120354       0.00195709      -0.00074142
O        3.12357287       1.18163722       3.50463889       0.00120354       0.00195709      -0.00074142
O        3.77695896       1.00921297       1.09705444       0.00601637       0.00008346      -0.00008669
O        3.39278859       2.85431285       5.34387393      -0.00293192       0.00493220      -0.00181342
O        4.38953991       0.57750581       5.46963485      -0.00264003       0.00540684      -0.00008669
O        1.39688275       1.03658256       1.82346168       0.00572448      -0.00039118      -0.00181342
P        2.76910756       1.80333406       2.06781567      -0.00156142       0.00122566      -0.00267936
P       -0.61739014       1.69559362       5.32159275       0.00259639       0.00045730       0.00204180
P       -1.40375756       4.31450786       6.44039608       0.00179831      -0.00084046      -0.00267936
P        0.07711287       1.32349013       0.94901234      -0.00076335       0.00252342       0.00204180
24
Lattice="6.85982935 0.0 0.0 0.0 7.12835549 0.0 0.0 0.0 7.98357277" Properties=species:S:1:pos:R:3:forces:R:3:magmoms:R:1 bandgap=1.3285999999999998 e_per_atom_relaxed=-4.536662329583334 mp_id=mp-560602 energy_per_atom=-4.52070509375 ef_per_atom_relaxed=-4.536662329583334 corrected_total_energy=-108.49692225 ef_per_atom=0.42725037500000046 task_id=mp-560602 calc_id=0 ionic_step=49 pretrained=T config_weight=1.0 mace_descriptors head=pbe_mp energy=-108.49692225 stress="-0.0002139506129036133 -0.0 -0.0 -0.0 -0.00040616173744631895 -0.0 -0.0 -0.0 -0.00015185502449693467" pbc="T T T"
O        5.19499541       2.58744784       0.02538680      -0.01227980       0.00483301       0.01355428       0.00000000
O        3.06117209       6.69122962       5.57684955       0.02536471       0.01722426      -0.02279017       0.00000000
O        1.76508074       0.97672991       7.95818597      -0.01227980      -0.00483301      -0.01355428       0.00000000
O        5.09474861       4.54090765       4.01717319       0.01227980      -0.00483301       0.01355428       0.00000000
O        1.76508074       2.58744784       3.96639958      -0.01227980       0.00483301      -0.01355428       0.00000000
O        1.06750558       1.33500533       0.98943603       0.00699962      -0.00018720      -0.01740337       0.00000000
O        4.49742026       1.33500533       3.00235036       0.00699962      -0.00018720       0.01740337       0.00000000
O        0.36874258       0.43712587       1.58506317      -0.02536471      -0.01722426      -0.02279017       0.00000000
O        6.49108677       4.00130362       2.40672322       0.02536471      -0.01722426       0.02279017       0.00000000
O        0.36874258       3.12705187       5.57684955      -0.02536471       0.01722426      -0.02279017       0.00000000
O        3.79865726       0.43712587       2.40672322      -0.02536471      -0.01722426       0.02279017       0.00000000
O        5.19499541       0.97672991       4.01717319      -0.01227980      -0.00483301       0.01355428       0.00000000
O        1.66483394       4.54090765       7.95818597       0.01227980      -0.00483301      -0.01355428       0.00000000
O        6.49108677       6.69122962       6.39850960       0.02536471       0.01722426       0.02279017       0.00000000
O        3.06117209       4.00130362       1.58506317       0.02536471      -0.01722426      -0.02279017       0.00000000
O        4.49742026       2.22917241       6.99413674       0.00699962       0.00018720       0.01740337       0.00000000
O        2.36240909       5.79335016       4.98122241      -0.00699962       0.00018720      -0.01740337       0.00000000
O        5.09474861       6.15162558       0.02538680       0.01227980       0.00483301       0.01355428       0.00000000
O        5.79232377       4.89918308       3.00235036      -0.00699962      -0.00018720       0.01740337       0.00000000
O        1.06750558       2.22917241       4.98122241       0.00699962       0.00018720      -0.01740337       0.00000000
O        1.66483394       6.15162558       3.96639958       0.01227980       0.00483301      -0.01355428       0.00000000
O        3.79865726       3.12705187       6.39850960      -0.02536471       0.01722426       0.02279017       0.00000000
O        5.79232377       5.79335016       6.99413674      -0.00699962       0.00018720       0.01740337       0.00000000
O        2.36240909       4.89918308       0.98943603      -0.00699962      -0.00018720      -0.01740337       0.00000000
9
Lattice="2.478765 -4.293347 0.0 2.478765 4.293347 0.0 0.0 0.0 5.404468" Properties=species:S:1:pos:R:3:forces:R:3:magmoms:R:1 bandgap=0.9842 e_per_atom_relaxed=-5.371432094444445 mp_id=mp-20893 energy_per_atom=-5.36350856 ef_per_atom_relaxed=-5.371432094444445 corrected_total_energy=-48.27157704 ef_per_atom=-0.5257010374999994 task_id=mp-662765 calc_id=0 ionic_step=0 pretrained=T config_weight=1.0 mace_descriptors head=pbe_mp energy=-45.48157704 stress="-0.004128044626376812 -0.0 -0.0 -0.0 -0.004128044782414541 -0.0 -0.0 -0.0 -0.0027980886013437953" pbc="T T T"
Ge       1.09007657       0.00000000       0.00000000       0.01882407       0.00000000       0.00000000       0.00000000
Ge       1.93372672       3.34931298       3.60298047      -0.00941204      -0.01630213       0.00000000       0.00000000
Ge       1.93372672      -3.34931298       1.80148753      -0.00941204       0.01630213       0.00000000       0.00000000
O        3.32559540      -2.48335777       4.35420152       0.03028958      -0.01041363       0.01166177       0.00000000
O        2.96661818      -0.17161796       0.75122105      -0.00612633       0.03143836       0.01166177       0.00000000
O        1.14408142      -1.63837127       2.55271399      -0.02416326      -0.02102473       0.01166177       0.00000000
O        3.32559540       2.48335777       1.05026648       0.03028958       0.01041363      -0.01166177       0.00000000
O        1.14408142       1.63837127       2.85175401      -0.02416326       0.02102473      -0.01166177       0.00000000
O        2.96661818       0.17161796       4.65324695      -0.00612633      -0.03143836      -0.01166177       0.00000000
4
Lattice="3.59173694 0.00149879 0.00103769 0.00150249 3.5945509 -0.00104341 0.00072879 -0.00072779 2.53288816" Properties=species:S:1:pos:R:3:forces:R:3:magmoms:R:1 bandgap=0.0 e_per_atom_relaxed=-4.7895803 mp_id=mp-1180619 energy_per_atom=-4.78906722 ef_per_atom_relaxed=-4.7895803 corrected_total_energy=-19.15626888 ef_per_atom=-1.3606280589583335 task_id=mp-1180619 calc_id=0 ionic_step=2 pretrained=T config_weight=1.0 mace_descriptors head=pbe_mp energy=-17.78226888 stress="0.000596513572594006 -0.0008656087175379661 -0.0001685723574378099 -0.0008656087175379661 0.0005454737877548238 0.00016725853849133883 -0.0001685723574378099 0.00016725853849133883 0.0004376535838164192" pbc="T T T"
Li       1.79661210       1.79802157       0.00074318       0.00001732      -0.00001453      -0.00165843      -0.01700000
Li       3.59322524       3.59603983       0.00049635       0.00006458       0.00003359      -0.00164897      -0.01700000
O        3.59283259       1.79844589       1.28157972      -0.00000742      -0.00005047      -0.01060954       0.87200000
O        1.79777715       3.59491039       1.25004925      -0.00007447       0.00003140       0.01391694       0.87200000
24
Lattice="6.60085435 1e-08 -3.80471618 6.57808551 -1e-08 3.8958766 3.30042717 -6.64902792 -1.90235857" Properties=species:S:1:pos:R:3:forces:R:3:magmoms:R:1 bandgap=2.9486999999999997 e_per_atom_relaxed=-6.87170859 mp_id=mp-1190549 energy_per_atom=-6.870342255833334 ef_per_atom_relaxed=-6.87170859 corrected_total_energy=-164.88821414 ef_per_atom=-2.0325347333333337 task_id=mp-1190549 calc_id=0 ionic_step=4 pretrained=T config_weight=1.0 mace_descriptors head=pbe_mp energy=-153.89621414 stress="0.005771582882905091 -0.0 0.0011363711817807597 -0.0 0.004612767583832166 3.2455847454592943e-10 0.0011363711817807597 3.2455847454592943e-10 0.006075997011577415" pbc="T T T"
Ge       7.52458192      -1.44916089       0.08315610      -0.03127832      -0.05919907      -0.07104489      -0.00000000
Ge      12.24382787      -1.44916089       0.05358433       0.03127832      -0.05919907       0.07104488       0.00000000
Ge       8.95478511      -5.19986703      -1.89435425       0.03127832       0.05919907       0.07104489      -0.00000000
Ge       4.23553916      -5.19986703      -1.86478248      -0.03127832       0.05919907      -0.07104488       0.00000000
Ge       3.34800274      -2.13197490      -1.60084457       0.01675693       0.05056048       0.03990202      -0.00000000
Ge       9.84232154      -2.13197489      -2.15829170      -0.01675693       0.05056048      -0.03990201      -0.00000000
Ge      13.13136429      -4.51705302      -0.21035358      -0.01675693      -0.05056048      -0.03990202       0.00000000
Ge       6.63704549      -4.51705303       0.34709355       0.01675693      -0.05056048       0.03990201      -0.00000000
O        6.58946993       0.00000000       0.04558021      -0.00000000       0.00000000      -0.00000000      -0.00000000
O        0.00000000       0.00000000       0.00000000       0.00000000       0.00000000      -0.00000000      -0.00000000
O        3.29473500      -1.46475565       0.02278998      -0.00000000       0.11224782       0.00000001       0.00000000
O       13.18463203      -5.18427227      -1.83398813       0.00000000      -0.11224782      -0.00000001       0.00000000
O        8.27624801      -1.70522459      -1.48347555      -0.14067839      -0.06967428      -0.09816851       0.00000000
O        4.91407627      -1.70522459      -2.27566066       0.14067839      -0.06967428       0.09816850       0.00000000
O        8.20311902      -4.94380333      -0.32772260       0.14067839       0.06967428       0.09816851       0.00000000
O       11.56529076      -4.94380333       0.46446251      -0.14067839       0.06967428      -0.09816850       0.00000000
O        8.65642041      -1.31233753       1.41302001       0.01215064       0.15466858      -0.00315052       0.00000000
O       11.11198937      -1.31233752      -1.27627957      -0.01215064       0.15466858       0.00315054       0.00000000
O        7.82294662      -5.33669039      -3.22421816      -0.01215064      -0.15466858       0.00315052      -0.00000000
O        5.36737766      -5.33669040      -0.53491858       0.01215064      -0.15466858      -0.00315054       0.00000000
O       13.38880670      -2.77334093      -0.21200068       0.14332719       0.02026058      -0.02241508       0.00000000
O        6.37960309      -2.77334093       0.34874091      -0.14332719       0.02026058       0.02241509       0.00000000
O        3.09056033      -3.87568699      -1.59919747      -0.14332719      -0.02026058       0.02241508       0.00000000
O       10.09976394      -3.87568699      -2.15993906       0.14332719      -0.02026058      -0.02241509       0.00000000
56
Lattice="6.67754 0.0 0.0 0.0 16.643974 0.0 0.0 0.911696 16.677552" Properties=species:S:1:pos:R:3:forces:R:3:magmoms:R:1 bandgap=2.5729 e_per_atom_relaxed=-4.0984271325 mp_id=mp-83 energy_per_atom=-4.089867876964286 ef_per_atom_relaxed=-4.0984271325 corrected_total_energy=-229.03260111 ef_per_atom=0.046581989910714175 task_id=mp-661145 calc_id=0 ionic_step=0 pretrained=T config_weight=1.0 mace_descriptors head=pbe_mp energy=-229.03260111 stress="-2.031998818191718e-05 -0.0 -0.0 -0.0 -4.667032275297074e-06 -1.5569070023968236e-06 -0.0 -1.5569070023968236e-06 3.503565042159427e-06" pbc="T T T"
S        0.56344415       8.24379331       3.56042387      -0.00110299      -0.00092125      -0.00135722       0.00000000
S        3.90221415       0.53404169       4.77835213      -0.00110299       0.00092125       0.00135722       0.00000000
S        6.11409585       9.31187669      13.11712813       0.00110299       0.00092125       0.00135722       0.00000000
S        2.77532585      17.02162831      11.89919987       0.00110299      -0.00092125      -0.00135722       0.00000000
S        5.43423547       6.89071818       9.55865554      -0.00088832       0.00241565       0.00188415       0.00000000
S        2.09546547       2.79881282      15.45767246      -0.00088832      -0.00241565      -0.00188415       0.00000000
S        1.24330453      10.66495182       7.11889646       0.00088832      -0.00241565      -0.00188415       0.00000000
S        4.58207453      14.75685718       1.21987954       0.00088832       0.00241565       0.00188415       0.00000000
S        0.83596123       3.50295023       9.71660864      -0.00157637      -0.00024811      -0.00125117       0.00000000
S        4.17473123       6.18658077      15.29971936      -0.00157637       0.00024811       0.00125117       0.00000000
S        5.84157877      14.05271977       6.96094336       0.00157637       0.00024811       0.00125117       0.00000000
S        2.50280877      11.36908923       1.37783264       0.00157637      -0.00024811      -0.00125117       0.00000000
S        0.87752892       6.89082828       9.30887584      -0.00026469       0.00340221       0.00155132       0.00000000
S        4.21629892       2.79870272      15.70745216      -0.00026469      -0.00340221      -0.00155132       0.00000000
S        5.80001108      10.66484172       7.36867616       0.00026469      -0.00340221      -0.00155132       0.00000000
S        2.46124108      14.75696728       0.97009984       0.00026469       0.00340221       0.00155132       0.00000000
S        1.63713916       4.27819190      11.34974124      -0.00190366       0.00010952      -0.00055582       0.00000000
S        4.97590916       5.41133910      13.66658676      -0.00190366      -0.00010952       0.00055582       0.00000000
S        5.04040084      13.27747810       5.32781076       0.00190366      -0.00010952       0.00055582       0.00000000
S        1.70163084      12.14433090       3.01096524       0.00190366       0.00010952      -0.00055582       0.00000000
S        1.67725782       6.49723787      11.07367772      -0.00030680      -0.00133383       0.00072351       0.00000000
S        5.01602782       3.19229313      13.94265028      -0.00030680       0.00133383      -0.00072351       0.00000000
S        5.00028218      11.05843213       5.60387428       0.00030680       0.00133383      -0.00072351       0.00000000
S        1.66151218      14.36337687       2.73490172       0.00030680      -0.00133383       0.00072351       0.00000000
S        1.15753153       7.20792395       1.89837239      -0.00089322      -0.00121413      -0.00053256       0.00000000
S        4.49630153       1.56991105       6.44040361      -0.00089322       0.00121413       0.00053256       0.00000000
S        5.52000847      10.34774605      14.77917961       0.00089322       0.00121413       0.00053256       0.00000000
S        2.18123847      15.98575895      10.23714839       0.00089322      -0.00121413      -0.00053256       0.00000000
S        0.99529401       7.07665728       5.19003750       0.00084929       0.00237954       0.00123313       0.00000000
S        4.33406401       1.70117772       3.14873850       0.00084929      -0.00237954      -0.00123313       0.00000000
S        5.68224599      10.47901272      11.48751450      -0.00084929      -0.00237954      -0.00123313       0.00000000
S        2.34347599      15.85449228      13.52881350      -0.00084929       0.00237954       0.00123313       0.00000000
S        3.28325293       7.41716182       1.95664376      -0.00043319       0.00103575      -0.00057343       0.00000000
S        6.62202293       1.36067318       6.38213224      -0.00043319      -0.00103575       0.00057343       0.00000000
S        3.39428707      10.13850818      14.72090824       0.00043319      -0.00103575       0.00057343       0.00000000
S        0.05551707      16.19499682      10.29541976       0.00043319       0.00103575      -0.00057343       0.00000000
S        3.11605401       7.28481664       5.36528522       0.00180428       0.00210607       0.00046768       0.00000000
S        6.45482401       1.49301836       2.97349078       0.00180428      -0.00210607      -0.00046768       0.00000000
S        3.56148599      10.27085336      11.31226678      -0.00180428      -0.00210607      -0.00046768       0.00000000
S        0.22271599      16.06265164      13.70406122      -0.00180428       0.00210607       0.00046768       0.00000000
S        4.03078350       5.67425237       2.51742644      -0.00085380       0.00114364       0.00062179       0.00000000
S        0.69201350       3.10358263       5.82134956      -0.00085380      -0.00114364      -0.00062179       0.00000000
S        2.64675650      11.88141763      14.16012556       0.00085380      -0.00114364      -0.00062179       0.00000000
S        5.98552650      14.45208737      10.85620244       0.00085380       0.00114364       0.00062179       0.00000000
S        3.92516485       5.58931988       4.74828251       0.00026206       0.00156515      -0.00038633       0.00000000
S        0.58639485       3.18851512       3.59049349       0.00026206      -0.00156515       0.00038633       0.00000000
S        2.75237515      11.96635012      11.92926949      -0.00026206      -0.00156515       0.00038633       0.00000000
S        6.09114515      14.36715488      13.08705851      -0.00026206       0.00156515      -0.00038633       0.00000000
S        4.88162229       5.13597190       8.66190357      -0.00071371       0.00420293      -0.00005082       0.00000000
S        1.54285229       4.55355910      16.35442443      -0.00071371      -0.00420293       0.00005082       0.00000000
S        1.79591771      12.41969810       8.01564843       0.00071371      -0.00420293       0.00005082       0.00000000
S        5.13468771      13.00211090       0.32312757       0.00071371       0.00420293      -0.00005082       0.00000000
S        5.39046420       3.61652512       9.94002112      -0.00249490       0.00179712      -0.00239162       0.00000000
S        2.05169420       6.07300588      15.07630688      -0.00249490      -0.00179712       0.00239162       0.00000000
S        1.28707580      13.93914488       6.73753088       0.00249490      -0.00179712       0.00239162       0.00000000
S        4.62584580      11.48266412       1.60124512       0.00249490       0.00179712      -0.00239162       0.00000000
44
Lattice="13.35716614 0.0 0.0 0.0 8.36992265 0.0 0.0 -0.0 4.93159157" Properties=species:S:1:pos:R:3:forces:R:3:magmoms:R:1 bandgap=5.716 e_per_atom_relaxed=-6.343968045681819 mp_id=mp-1020013 energy_per_atom=-6.340705206590909 ef_per_atom_relaxed=-6.343968045681819 corrected_total_energy=-278.99102909 ef_per_atom=-2.092847595530303 task_id=mp-1020013 calc_id=0 ionic_step=23 pretrained=T config_weight=1.0 mace_descriptors head=pbe_mp energy=-259.75502909 stress="-0.0021196063130070612 -0.0 -0.0 -0.0 -0.001158060719344133 -0.0 -0.0 -0.0 -0.0018023846700235165" pbc="T T T"
Li       5.29147062       4.75867458       2.96376551      -0.00828954       0.00135799       0.00265905       0.00000000
Li      11.97005369       7.79620940       4.43362184      -0.00828954      -0.00135799      -0.00265905       0.00000000
Li       8.06569552       0.57371325       1.96782606       0.00828954       0.00135799      -0.00265905       0.00000000
Li       1.38711245       3.61124807       0.49796973       0.00828954      -0.00135799       0.00265905       0.00000000
Li       8.06569552       3.61124807       1.96782606       0.00828954      -0.00135799      -0.00265905       0.00000000
Li       1.38711245       0.57371325       0.49796973       0.00828954       0.00135799       0.00265905       0.00000000
Li       5.29147062       7.79620940       2.96376551      -0.00828954      -0.00135799       0.00265905       0.00000000
Li      11.97005369       4.75867458       4.43362184      -0.00828954       0.00135799      -0.00265905       0.00000000
S        3.79041486       2.09248066       3.83670077      -0.00957806      -0.00000000       0.00292806       0.00000000
S       10.46899793       2.09248066       3.56068659      -0.00957806      -0.00000000      -0.00292806       0.00000000
S        9.56675128       6.27744199       1.09489080       0.00957806      -0.00000000      -0.00292806       0.00000000
S        2.88816821       6.27744199       1.37090498       0.00957806      -0.00000000       0.00292806       0.00000000
S        6.62580250       2.09248066       4.36672929       0.00557284      -0.00000000       0.03812794      -0.00000000
S       13.30438557       2.09248066       3.03065806       0.00557284      -0.00000000      -0.03812794       0.00000000
S        6.73136364       6.27744199       0.56486228      -0.00557284      -0.00000000      -0.03812794       0.00000000
S        0.05278057       6.27744199       1.90093351      -0.00557284      -0.00000000       0.03812794      -0.00000000
O        3.92535363       3.31989843       3.07953931      -0.00297627      -0.02950016       0.02279303      -0.00000000
O       10.60393670       0.86506289       4.31784805      -0.00297627       0.02950016      -0.02279303       0.00000000
O        9.43181251       7.50485976       1.85205226       0.00297627      -0.02950016      -0.02279303      -0.00000000
O        2.75322944       5.05002422       0.61374352       0.00297627       0.02950016       0.02279303      -0.00000000
O        9.43181251       5.05002422       1.85205226       0.00297627       0.02950016      -0.02279303       0.00000000
O        2.75322944       7.50485976       0.61374352       0.00297627      -0.02950016       0.02279303       0.00000000
O        3.92535363       0.86506289       3.07953931      -0.00297627       0.02950016       0.02279303      -0.00000000
O       10.60393670       3.31989843       4.31784805      -0.00297627      -0.02950016      -0.02279303      -0.00000000
O        2.68194759       2.09248066       4.78500011       0.01403904      -0.00000000      -0.03020733       0.00000000
O        9.36053066       2.09248066       2.61238725       0.01403904      -0.00000000       0.03020733       0.00000000
O       10.67521855       6.27744199       0.14659146      -0.01403904      -0.00000000       0.03020733      -0.00000000
O        3.99663548       6.27744199       2.31920432      -0.01403904      -0.00000000      -0.03020733       0.00000000
O        5.10054783       2.09248066      -0.00215520       0.01321118      -0.00000000       0.01194729       0.00000000
O       11.77913090       2.09248066       2.46795099       0.01321118      -0.00000000      -0.01194729       0.00000000
O        8.25661831       6.27744199       0.00215520      -0.01321118      -0.00000000      -0.01194729       0.00000000
O        1.57803524       6.27744199       2.46364058      -0.01321118      -0.00000000       0.01194729       0.00000000
O        6.78220463       3.31678490       3.57932327       0.01301166       0.00063266      -0.01440520      -0.00000000
O        0.10362156       0.86817642       3.81806408       0.01301166      -0.00063266       0.01440520       0.00000000
O        6.57496151       7.50174623       1.35226830      -0.01301166       0.00063266       0.01440520      -0.00000000
O       13.25354458       5.05313775       1.11352749      -0.01301166      -0.00063266      -0.01440520      -0.00000000
O        6.57496151       5.05313775       1.35226830      -0.01301166      -0.00063266       0.01440520       0.00000000
O       13.25354458       7.50174623       1.11352749      -0.01301166       0.00063266      -0.01440520      -0.00000000
O        6.78220463       0.86817642       3.57932327       0.01301166      -0.00063266      -0.01440520      -0.00000000
O        0.10362156       3.31678490       3.81806408       0.01301166       0.00063266       0.01440520      -0.00000000
O        7.40200852       2.09248066       0.67260103      -0.01048973      -0.00000000      -0.04001320      -0.00000000
O        0.72342545       2.09248066       1.79319475      -0.01048973      -0.00000000       0.04001320       0.00000000
O        5.95515762       6.27744199       4.25899054       0.01048973      -0.00000000       0.04001320      -0.00000000
O       12.63374069       6.27744199       3.13839682       0.01048973      -0.00000000      -0.04001320       0.00000000
32
Lattice="13.642061 0.0 0.0 0.0 9.248054 0.0 0.0 3.313397 9.138989" Properties=species:S:1:pos:R:3:forces:R:3:magmoms:R:1 bandgap=2.748 e_per_atom_relaxed=-4.136449866875 mp_id=mp-96 energy_per_atom=-4.1278769459375 ef_per_atom_relaxed=-4.136449866875 corrected_total_energy=-132.09206227 ef_per_atom=0.008572920937499617 task_id=mp-663141 calc_id=0 ionic_step=0 pretrained=T config_weight=1.0 mace_descriptors head=pbe_mp energy=-132.09206227 stress="-3.70932637690877e-05 -0.0 -0.0 -0.0 -2.5120813446836687e-05 -2.0500174308872305e-05 -0.0 -2.0500174308872305e-05 -1.2972683367219436e-05" pbc="T T T"
S        4.76912810       8.59522894       6.23493816      -0.00078978       0.00221857      -0.00059795       0.00000000
S        4.76912810      10.24694756       7.47354534      -0.00078978      -0.00221857       0.00059795       0.00000000
S        8.87293290       3.96622206       2.90405084       0.00078978      -0.00221857       0.00059795       0.00000000
S        8.87293290       2.31450344       1.66544366       0.00078978       0.00221857      -0.00059795       0.00000000
S        7.87505706       7.32983746       6.02715411      -0.00107240       0.00256446      -0.00273937       0.00000000
S        7.87505706      11.51233904       7.68132939      -0.00107240      -0.00256446       0.00273937       0.00000000
S        5.76700394       5.23161354       3.11183489       0.00107240      -0.00256446       0.00273937       0.00000000
S        5.76700394       1.04911196       1.45765961       0.00107240       0.00256446      -0.00273937       0.00000000