 vasp.6.3.2 27Jun22 (build Mar 10 2023 17:27:07) complex                         
 executed on        HPECrayEX_GCC date 2023.04.25  01:27:42
 running  256 mpi-ranks, with    1 threads/rank
 distrk:  each k-point on  256 cores,    1 groups
 distr:  one band on NCORE=  16 cores,   16 groups


--------------------------------------------------------------------------------------------------------


 INCAR:
   ADDGRID = True
   ALGO = Fast
   BPARAM = 15.7
   EDIFF = 1e-05
   EDIFFG = -0.05
   ENCUT = 520
   IBRION = 2
   ISIF = 2
   ISMEAR = 0
   ISPIN = 1
   ISYM = 2
   KPAR = 1
   LASPH = True
   LMAXMIX = 4
   LORBIT = 11
   LPLANE = True
   LREAL = Auto
   LUSE_VDW = True
   LWAVE = False
   MAGMOM = 216*0.6
   METAGGA = Scan
   NCORE = 16
   NELM = 200
   NSW = 99
   PREC = Accurate
   SIGMA = 0.05

 POTCAR:    PAW_PBE Pd 04Jan2005                  
 POTCAR:    PAW_PBE Se 06Sep2000                  
 -----------------------------------------------------------------------------
|                                                                             |
|               ----> ADVICE to this user running VASP <----                  |
|                                                                             |
|     You have switched on vdW-DFT.                                           |
|     This routine was written and supplied by Jiri Klimes. We recommend      |
|     that you carefully read and cite the following publications:            |
|       J. Klimes, D.R. Bowler, A. Michelides                                 |
|          J. Phys.: Cond Matt. 22 022201 (2010)                              |
|       J. Klimes, D.R. Bowler, A. Michelides                                 |
|          Phys. Rev. B. 83, 195131 (2011)                                    |
|     and references therein.                                                 |
|                                                                             |
 -----------------------------------------------------------------------------

 POTCAR:    PAW_PBE Pd 04Jan2005                  
   VRHFIN =Pd : s1 d9                                                                               
   LEXCH  = PE                                                                                      
   EATOM  =   809.7530 eV,   59.5152 Ry                                                             
                                                                                                    
   TITEL  = PAW_PBE Pd 04Jan2005                                                                    
   LULTRA =        F    use ultrasoft PP ?                                                          
   IUNSCR =        1    unscreen: 0-lin 1-nonlin 2-no                                               
   RPACOR =    2.000    partial core radius                                                         
   POMASS =  106.420; ZVAL   =   10.000    mass and valenz                                          
   RCORE  =    2.600    outmost cutoff radius                                                       
   RWIGS  =    2.710; RWIGS  =    1.434    wigner-seitz radius (au A)                               
   ENMAX  =  250.925; ENMIN  =  188.194 eV                                                          
   ICORE  =        3    local potential                                                             
   LCOR   =        T    correct aug charges                                                         
   LPAW   =        T    paw PP                                                                      
   EAUG   =  416.230                                                                                
   DEXC   =    0.000                                                                                
   RMAX   =    2.653    core radius for proj-oper                                                   
   RAUG   =    1.300    factor for augmentation sphere                                              
   RDEP   =    2.734    radius for radial grids                                                     
   RDEPT  =    2.103    core radius for aug-charge                                                  
                                                                                                    
   Atomic configuration                                                                             
   12 entries                                                                                       
     n  l   j            E        occ.                                                              
     1  0  0.50    -24164.6631   2.0000                                                             
     2  0  0.50     -3530.9218   2.0000                                                             
     2  1  1.50     -3165.6822   6.0000                                                             
     3  0  0.50      -639.4577   2.0000                                                             
     3  1  1.50      -519.4532   6.0000                                                             
     3  2  2.50      -328.9757  10.0000                                                             
     4  0  0.50       -88.7014   2.0000                                                             
     4  1  1.50       -54.4540   6.0000                                                             
     4  2  2.50        -6.6878   9.0000                                                             
     5  0  0.50        -4.3543   1.0000                                                             
     5  1  0.50        -1.3606   0.0000                                                             
     4  3  2.50        -1.3606   0.0000                                                             
   Description                                                                                      
     l       E           TYP  RCUT    TYP  RCUT                                                     
     2     -6.6878251     23  2.400                                                                 
     2     -8.0484077     23  2.400                                                                 
     0     -4.3542939     23  2.400                                                                 
     0      4.3406793     23  2.400                                                                 
     1     -4.0817478     23  2.600                                                                 
     1     15.8380318     23  2.600                                                                 
     3     -4.0817478     23  2.400                                                                 
  local pseudopotential read in
  partial core-charges read in
  partial kinetic energy density read in
  atomic valenz-charges read in
  non local Contribution for L=           2  read in
    real space projection operators read in
  non local Contribution for L=           2  read in
    real space projection operators read in
  non local Contribution for L=           0  read in
    real space projection operators read in
  non local Contribution for L=           0  read in
    real space projection operators read in
  non local Contribution for L=           1  read in
    real space projection operators read in
  non local Contribution for L=           1  read in
    real space projection operators read in
    PAW grid and wavefunctions read in

   number of l-projection  operators is LMAX  =           6
   number of lm-projection operators is LMMAX =          18

 POTCAR:    PAW_PBE Se 06Sep2000                  
   VRHFIN =Se: s2p4                                                                                 
   LEXCH  = PE                                                                                      
   EATOM  =   257.1286 eV,   18.8984 Ry                                                             
                                                                                                    
   TITEL  = PAW_PBE Se 06Sep2000                                                                    
   LULTRA =        F    use ultrasoft PP ?                                                          
   IUNSCR =        1    unscreen: 0-lin 1-nonlin 2-no                                               
   RPACOR =    1.900    partial core radius                                                         
   POMASS =   78.960; ZVAL   =    6.000    mass and valenz                                          
   RCORE  =    2.100    outmost cutoff radius                                                       
   RWIGS  =    2.200; RWIGS  =    1.164    wigner-seitz radius (au A)                               
   ENMAX  =  211.555; ENMIN  =  158.666 eV                                                          
   ICORE  =        3    local potential                                                             
   LCOR   =        T    correct aug charges                                                         
   LPAW   =        T    paw PP                                                                      
   EAUG   =  446.842                                                                                
   DEXC   =    0.000                                                                                
   RMAX   =    2.147    core radius for proj-oper                                                   
   RAUG   =    1.300    factor for augmentation sphere                                              
   RDEP   =    2.177    radius for radial grids                                                     
   RDEPT  =    1.928    core radius for aug-charge                                                  
                                                                                                    
   Atomic configuration                                                                             
   10 entries                                                                                       
     n  l   j            E        occ.                                                              
     1  0  0.50    -12503.4787   2.0000                                                             
     2  0  0.50     -1606.9547   2.0000                                                             
     2  1  1.50     -1413.3140   6.0000                                                             
     3  0  0.50      -213.4885   2.0000                                                             
     3  1  1.50      -152.9538   6.0000                                                             
     3  2  2.50       -53.1221  10.0000                                                             
     4  0  0.50       -17.2865   2.0000                                                             
     4  1  0.50        -6.5110   4.0000                                                             
     4  2  2.50        -6.8029   0.0000                                                             
     4  3  2.50        -6.8029   0.0000                                                             
   Description                                                                                      
     l       E           TYP  RCUT    TYP  RCUT                                                     
     0    -17.2865377     23  2.100                                                                 
     0    -15.3094411     23  2.100                                                                 
     1     -6.5110275     23  2.100                                                                 
     1     -0.0695192     23  2.100                                                                 
     2     -6.8029130     23  2.100                                                                 
     3     -1.3605826      7  2.100                                                                 
  local pseudopotential read in
  partial core-charges read in
  partial kinetic energy density read in
  atomic valenz-charges read in
  non local Contribution for L=           0  read in
    real space projection operators read in
  non local Contribution for L=           0  read in
    real space projection operators read in
  non local Contribution for L=           1  read in
    real space projection operators read in
  non local Contribution for L=           1  read in
    real space projection operators read in
  non local Contribution for L=           2  read in
    real space projection operators read in
    PAW grid and wavefunctions read in

   number of l-projection  operators is LMAX  =           5
   number of lm-projection operators is LMMAX =          13

 Optimization of the real space projectors (new method)

 maximal supplied QI-value         = 14.36
 optimisation between [QCUT,QGAM] = [ 11.63, 23.27] = [ 37.90,151.59] Ry 
 Optimized for a Real-space Cutoff    1.49 Angstroem

   l    n(q)    QCUT    max X(q) W(low)/X(q) W(high)/X(q)  e(spline) 
   2      9    11.633    59.108    0.81E-04    0.17E-04    0.26E-06
   2      9    11.633    58.101    0.82E-04    0.18E-04    0.27E-06
   0     10    11.633   102.235    0.26E-04    0.16E-04    0.21E-06
   0     10    11.633    58.388    0.23E-04    0.15E-04    0.20E-06
   1     10    11.633    22.191    0.10E-03    0.20E-03    0.14E-06
   1     10    11.633    15.590    0.86E-04    0.17E-03    0.12E-06
 Optimization of the real space projectors (new method)

 maximal supplied QI-value         = 17.95
 optimisation between [QCUT,QGAM] = [ 11.67, 23.34] = [ 38.13,152.52] Ry 
 Optimized for a Real-space Cutoff    1.25 Angstroem

   l    n(q)    QCUT    max X(q) W(low)/X(q) W(high)/X(q)  e(spline) 
   0      9    11.669   133.320    0.17E-03    0.44E-04    0.69E-07
   0      9    11.669   111.601    0.18E-03    0.46E-04    0.72E-07
   1      8    11.669    47.222    0.22E-03    0.37E-03    0.10E-06
   1      8    11.669    33.775    0.22E-03    0.36E-03    0.10E-06
   2      8    11.669     3.720    0.19E-03    0.46E-04    0.50E-07
  PAW_PBE Pd 04Jan2005                  :
 energy of atom  1       EATOM= -809.7530
 kinetic energy error for atom=    0.0045 (will be added to EATOM!!)
  PAW_PBE Se 06Sep2000                  :
 energy of atom  2       EATOM= -257.1286
 kinetic energy error for atom=    0.0007 (will be added to EATOM!!)


 POSCAR: Pd108 Se108
  positions in direct lattice
  velocities in cartesian coordinates

 METAGGA = SCAN     LMAXTAU =  6    LMIXTAU =  F

 exchange correlation table for  LEXCH =        8
   RHO(1)=    0.500       N(1)  =     2000
   RHO(2)=  100.500       N(2)  =     4000



--------------------------------------------------------------------------------------------------------


 ion  position               nearest neighbor table
   1  0.258  0.471  0.014- 121 2.33 119 2.38 115 2.49   3 3.00  15 3.17
   2  0.748  0.458  0.014- 122 2.37 120 2.37 116 2.42   4 2.96  14 3.20
   3  0.154  0.354  0.039- 127 2.38 113 2.39 117 2.43   1 3.00
   4  0.648  0.335  0.038- 114 2.40 128 2.43 118 2.46   2 2.96   9 3.25
   5  0.049  0.826  0.040- 119 2.43 113 2.46 109 2.47 123 2.48  22 3.13
   6  0.544  0.811  0.038- 110 2.41 120 2.46 114 2.46 124 2.54   7 2.97  23 3.29
   7  0.379  0.981  0.015- 117 2.40 111 2.42 115 2.49   6 2.97 124 3.05  15 3.42
   8  0.864  0.974  0.009- 118 2.35 116 2.37 112 2.44
   9  0.491  0.284  0.036- 110 2.31 115 2.55 136 2.65  11 2.69  15 2.82  17 2.92   4 3.25
  10  0.912  0.588  0.042- 112 2.44 113 2.45 122 2.46 135 2.46  24 3.28
  11  0.407  0.601  0.043- 114 2.43 111 2.45 121 2.48 136 2.51   9 2.69  25 3.22
  12  0.202  0.914  0.022- 117 2.42 109 2.42 119 2.45 111 2.48
  13  0.706  0.894  0.019- 110 2.37 118 2.42 112 2.48 120 2.49
  14  0.869  0.249  0.060- 122 2.40 129 2.43 123 2.44 116 2.45   2 3.20
  15  0.367  0.253  0.060- 130 2.42 121 2.43 124 2.48 115 2.52   9 2.82   1 3.17   7 3.42
  16  0.084  0.146  0.082- 131 2.42 109 2.44 135 2.46 137 2.48  18 3.25
  17  0.588  0.137  0.082- 110 2.42 132 2.43 138 2.48 136 2.53   9 2.92  19 3.25
  18  0.980  0.019  0.115- 133 2.44 129 2.45 143 2.46 123 2.46  16 3.25
  19  0.481  0.015  0.114- 134 2.44 130 2.45 144 2.47 124 2.47  17 3.25
  20  0.874  0.511  0.116- 129 2.45 139 2.46 125 2.46 135 2.47  38 3.27
  21  0.375  0.507  0.117- 140 2.45 130 2.46 126 2.47 136 2.48  39 3.22
  22  0.186  0.665  0.082- 121 2.39 131 2.43 133 2.44 127 2.45   5 3.13
  23  0.692  0.656  0.081- 122 2.42 132 2.43 134 2.46 128 2.47   6 3.29
  24  0.827  0.909  0.079- 132 2.45 125 2.45 118 2.46 123 2.47  10 3.28
  25  0.323  0.914  0.079- 131 2.46 124 2.46 126 2.46 117 2.47  11 3.22  27 3.42
  26  0.739  0.253  0.117- 138 2.44 128 2.46 129 2.46 151 2.47
  27  0.239  0.249  0.118- 137 2.44 152 2.45 130 2.46 127 2.46  25 3.42
  28  0.031  0.585  0.099- 127 2.40 125 2.41 135 2.42 133 2.42
  29  0.532  0.586  0.098- 136 2.41 128 2.41 134 2.42 126 2.44
  30  0.698  0.922  0.138- 132 2.41 145 2.42 139 2.42 138 2.44
  31  0.197  0.923  0.137- 131 2.41 137 2.43 140 2.43 146 2.43
  32  0.913  0.831  0.160- 125 2.44 151 2.45 153 2.46 147 2.46  34 3.28
  33  0.414  0.829  0.159- 152 2.45 126 2.45 148 2.46 154 2.46  35 3.27
  34  0.812  0.695  0.192- 159 2.44 149 2.45 139 2.46 145 2.46  32 3.28
  35  0.312  0.694  0.192- 160 2.45 150 2.45 146 2.46 140 2.46  33 3.27
  36  0.704  0.190  0.193- 155 2.45 145 2.45 141 2.45 151 2.46  54 3.26
  37  0.204  0.188  0.194- 156 2.45 146 2.45 152 2.45 142 2.46  55 3.24
  38  0.021  0.336  0.158- 137 2.44 147 2.45 149 2.45 143 2.46  20 3.27
  39  0.521  0.336  0.158- 138 2.45 148 2.45 150 2.46 144 2.46  21 3.22
  40  0.655  0.592  0.156- 141 2.45 139 2.45 148 2.46 134 2.46
  41  0.155  0.593  0.157- 147 2.45 133 2.45 142 2.46 140 2.46
  42  0.570  0.933  0.195- 145 2.45 154 2.45 167 2.46 144 2.46  56 3.43
  43  0.070  0.933  0.195- 146 2.45 153 2.45 168 2.46 143 2.46
  44  0.862  0.264  0.175- 143 2.42 151 2.42 141 2.42 149 2.43
  45  0.363  0.262  0.176- 152 2.43 150 2.43 142 2.43 144 2.43
  46  0.528  0.601  0.214- 155 2.43 154 2.43 161 2.43 148 2.43
  47  0.028  0.602  0.214- 147 2.42 156 2.43 162 2.43 153 2.43
  48  0.745  0.508  0.236- 167 2.45 141 2.45 169 2.46 163 2.46  50 3.28
  49  0.245  0.507  0.237- 142 2.45 168 2.45 170 2.46 164 2.46  51 3.28
  50  0.642  0.373  0.269- 175 2.45 165 2.45 155 2.46 161 2.46  48 3.28
  51  0.143  0.372  0.269- 166 2.45 176 2.45 156 2.46 162 2.46  49 3.28
  52  0.535  0.866  0.270- 171 2.45 161 2.45 167 2.46 157 2.46  70 3.24
  53  0.035  0.866  0.270- 172 2.44 162 2.45 158 2.46 168 2.46  71 3.26
  54  0.852  0.014  0.235- 153 2.44 163 2.45 159 2.46 165 2.46  36 3.26
  55  0.352  0.014  0.235- 154 2.45 164 2.45 166 2.46 160 2.46  37 3.24
  56  0.487  0.269  0.233- 155 2.45 164 2.45 150 2.45 157 2.46  42 3.43
  57  0.986  0.270  0.233- 149 2.45 163 2.45 158 2.45 156 2.45
  58  0.401  0.611  0.272- 170 2.45 161 2.45 183 2.45 160 2.46  72 3.43
  59  0.901  0.610  0.272- 184 2.45 162 2.45 159 2.45 169 2.45
  60  0.694  0.940  0.253- 159 2.43 157 2.43 165 2.43 167 2.43
  61  0.194  0.940  0.253- 158 2.43 160 2.43 168 2.43 166 2.43
  62  0.359  0.279  0.291- 170 2.43 171 2.43 164 2.43 177 2.43
  63  0.859  0.278  0.291- 178 2.42 169 2.43 163 2.43 172 2.43
  64  0.575  0.186  0.314- 157 2.45 183 2.45 179 2.46 185 2.46  66 3.27
  65  0.076  0.185  0.313- 158 2.44 184 2.45 186 2.46 180 2.46  67 3.28
  66  0.473  0.051  0.346- 181 2.45 191 2.45 177 2.46 171 2.46  64 3.27
  67  0.974  0.049  0.346- 192 2.44 182 2.45 172 2.46 178 2.46  65 3.28
  68  0.366  0.544  0.348- 187 2.45 177 2.45 183 2.46 173 2.46  86 3.22
  69  0.866  0.544  0.347- 188 2.44 178 2.45 184 2.45 174 2.46  87 3.27
  70  0.683  0.692  0.312- 169 2.45 179 2.45 181 2.45 175 2.46  52 3.24
  71  0.183  0.690  0.312- 170 2.45 180 2.45 176 2.45 182 2.46  53 3.26
  72  0.317  0.947  0.310- 180 2.45 171 2.45 166 2.46 173 2.46  58 3.43
  73  0.817  0.947  0.310- 179 2.45 172 2.45 165 2.46 174 2.46
  74  0.232  0.288  0.349- 176 2.45 186 2.45 177 2.46 199 2.46
  75  0.733  0.287  0.349- 178 2.45 200 2.45 175 2.46 185 2.46
  76  0.524  0.618  0.330- 181 2.43 183 2.43 175 2.43 173 2.43
  77  0.025  0.616  0.330- 174 2.42 182 2.42 176 2.42 184 2.43
  78  0.190  0.958  0.368- 193 2.41 180 2.42 186 2.42 187 2.44
  79  0.690  0.957  0.368- 194 2.41 188 2.43 185 2.43 179 2.43
  80  0.406  0.865  0.391- 199 2.44 195 2.45 173 2.47 201 2.47  82 3.25
  81  0.908  0.860  0.391- 200 2.44 196 2.45 174 2.46 202 2.46  83 3.25
  82  0.299  0.743  0.423- 207 2.42 193 2.43 187 2.48 197 2.53 106 2.92  80 3.25
  83  0.804  0.734  0.423- 194 2.42 208 2.44 198 2.46 188 2.48  81 3.25
  84  0.196  0.224  0.425- 203 2.42 193 2.43 199 2.46 189 2.47 102 3.29
  85  0.702  0.215  0.424- 204 2.39 194 2.43 200 2.44 190 2.45 103 3.13
  86  0.513  0.373  0.389- 185 2.45 195 2.46 191 2.47 197 2.48  68 3.22
  87  0.014  0.369  0.389- 196 2.45 186 2.46 192 2.46 198 2.47  69 3.27
  88  0.148  0.627  0.388- 187 2.44 189 2.46 196 2.46 182 2.47
  89  0.648  0.631  0.387- 188 2.44 181 2.45 195 2.46 190 2.46  91 3.42
  90  0.061  0.971  0.427- 193 2.45 192 2.45 215 2.46 202 2.47 104 3.28
  91  0.564  0.966  0.426- 194 2.46 201 2.46 191 2.46 216 2.47 105 3.22  89 3.42
  92  0.355  0.294  0.408- 197 2.41 189 2.41 199 2.42 191 2.44
  93  0.857  0.295  0.406- 190 2.40 192 2.41 198 2.42 200 2.42
  94  0.018  0.631  0.446- 203 2.40 196 2.43 202 2.44 209 2.45  98 3.20
  95  0.520  0.627  0.445- 195 2.42 204 2.43 201 2.48 210 2.52 106 2.82  99 3.17 101 3.42
  96  0.240  0.545  0.468- 211 2.40 189 2.43 215 2.46  98 2.96 106 3.25
  97  0.734  0.526  0.467- 190 2.38 212 2.39 216 2.43  99 3.00
  98  0.140  0.422  0.491- 203 2.37 213 2.37 209 2.42  96 2.96  94 3.20
  99  0.630  0.409  0.491- 204 2.33 214 2.38 210 2.49  97 3.00  95 3.17
 100  0.023  0.906  0.496- 215 2.35 209 2.37 205 2.44
 101  0.509  0.899  0.490- 216 2.40 206 2.42 210 2.49 102 2.97 201 3.05  95 3.42
 102  0.343  0.069  0.468- 207 2.41 213 2.46 211 2.46 201 2.54 101 2.97  84 3.29
 103  0.838  0.054  0.466- 214 2.43 212 2.46 208 2.47 202 2.48  85 3.13
 104  0.975  0.292  0.464- 205 2.44 212 2.45 203 2.46 198 2.46  90 3.28
 105  0.480  0.279  0.462- 211 2.43 206 2.45 204 2.48 197 2.51 106 2.69  91 3.22
 106  0.396  0.596  0.470- 207 2.31 210 2.55 197 2.65 105 2.69  95 2.82  82 2.92  96 3.25
 107  0.181  0.986  0.486- 207 2.37 215 2.42 205 2.48 213 2.49
 108  0.685  0.966  0.484- 216 2.42 208 2.42 214 2.45 206 2.48
 109  0.066  0.063  0.039-  12 2.42  16 2.44   5 2.47
 110  0.581  0.017  0.042-   9 2.31  13 2.37   6 2.41  17 2.42
 111  0.344  0.777  0.006-   7 2.42  11 2.45  12 2.48
 112  0.846  0.743  0.003-   8 2.44  10 2.44  13 2.48
 113  0.033  0.595  0.028-   3 2.39  10 2.45   5 2.46
 114  0.531  0.579  0.025-   4 2.40  11 2.43   6 2.46
 115  0.392  0.224  0.012-   7 2.49   1 2.49  15 2.52   9 2.55
 116  0.874  0.209  0.012-   8 2.37   2 2.42  14 2.45
 117  0.256  0.073  0.040-   7 2.40  12 2.42   3 2.43  25 2.47
 118  0.757  0.056  0.039-   8 2.35  13 2.42  24 2.46   4 2.46
 119  0.153  0.737  0.006-   1 2.38   5 2.43  12 2.45
 120  0.649  0.725  0.004-   2 2.37   6 2.46  13 2.49
 121  0.299  0.539  0.053-   1 2.33  22 2.39  15 2.43  11 2.48
 122  0.802  0.529  0.050-   2 2.37  14 2.40  23 2.42  10 2.46
 123  0.938  0.967  0.072-  14 2.44  18 2.46  24 2.47   5 2.48
 124  0.436  0.966  0.072-  25 2.46  19 2.47  15 2.48   6 2.54   7 3.05
 125  0.897  0.741  0.117-  28 2.41  32 2.44  24 2.45  20 2.46
 126  0.397  0.737  0.116-  29 2.44  33 2.45  25 2.46  21 2.47
 127  0.165  0.433  0.082-   3 2.38  28 2.40  22 2.45  27 2.46
 128  0.666  0.429  0.080-  29 2.41   4 2.43  26 2.46  23 2.47
 129  0.859  0.278  0.107-  14 2.43  18 2.45  20 2.45  26 2.46
 130  0.359  0.273  0.108-  15 2.42  19 2.45  27 2.46  21 2.46
 131  0.204  0.893  0.090-  31 2.41  16 2.42  22 2.43  25 2.46
 132  0.709  0.883  0.091-  30 2.41  23 2.43  17 2.43  24 2.45
 133  0.087  0.743  0.117-  28 2.42  18 2.44  22 2.44  41 2.45
 134  0.590  0.739  0.116-  29 2.42  19 2.44  40 2.46  23 2.46
 135  0.976  0.427  0.081-  28 2.42  10 2.46  16 2.46  20 2.47
 136  0.478  0.425  0.082-  29 2.41  21 2.48  11 2.51  17 2.53   9 2.65
 137  0.126  0.202  0.125-  31 2.43  38 2.44  27 2.44  16 2.48
 138  0.628  0.202  0.125-  30 2.44  26 2.44  39 2.45  17 2.48
 139  0.768  0.642  0.150-  30 2.42  40 2.45  20 2.46  34 2.46
 140  0.268  0.643  0.149-  31 2.43  21 2.45  35 2.46  41 2.46
 141  0.728  0.418  0.193-  44 2.42  48 2.45  40 2.45  36 2.45
 142  0.228  0.416  0.193-  45 2.43  49 2.45  41 2.46  37 2.46
 143  0.998  0.108  0.158-  44 2.42  18 2.46  38 2.46  43 2.46
 144  0.498  0.107  0.158-  45 2.43  42 2.46  39 2.46  19 2.47
 145  0.690  0.954  0.185-  30 2.42  36 2.45  42 2.45  34 2.46
 146  0.190  0.953  0.185-  31 2.43  37 2.45  43 2.45  35 2.46
 147  0.035  0.571  0.167-  47 2.42  38 2.45  41 2.45  32 2.46
 148  0.536  0.570  0.167-  46 2.43  39 2.45  40 2.46  33 2.46
 149  0.921  0.417  0.193-  44 2.43  34 2.45  57 2.45  38 2.45
 150  0.421  0.417  0.193-  45 2.43  35 2.45  56 2.45  39 2.46
 151  0.804  0.109  0.158-  44 2.42  32 2.45  36 2.46  26 2.47
 152  0.305  0.106  0.158-  45 2.43  33 2.45  27 2.45  37 2.45
 153  0.958  0.881  0.202-  47 2.43  54 2.44  43 2.45  32 2.46
 154  0.458  0.881  0.202-  46 2.43  55 2.45  42 2.45  33 2.46
 155  0.599  0.322  0.226-  46 2.43  36 2.45  56 2.45  50 2.46
 156  0.098  0.322  0.227-  47 2.43  37 2.45  57 2.45  51 2.46
 157  0.559  0.095  0.270-  60 2.43  64 2.45  56 2.46  52 2.46
 158  0.058  0.095  0.270-  61 2.43  65 2.44  57 2.45  53 2.46
 159  0.829  0.785  0.235-  60 2.43  34 2.44  59 2.45  54 2.46
 160  0.329  0.785  0.235-  61 2.43  35 2.45  58 2.46  55 2.46
 161  0.521  0.632  0.262-  46 2.43  52 2.45  58 2.45  50 2.46
 162  0.021  0.631  0.262-  47 2.43  53 2.45  59 2.45  51 2.46
 163  0.866  0.248  0.244-  63 2.43  54 2.45  57 2.45  48 2.46
 164  0.367  0.248  0.244-  62 2.43  55 2.45  56 2.45  49 2.46
 165  0.752  0.095  0.270-  60 2.43  50 2.45  54 2.46  73 2.46
 166  0.252  0.095  0.270-  61 2.43  51 2.45  55 2.46  72 2.46
 167  0.636  0.785  0.235-  60 2.43  48 2.45  52 2.46  42 2.46
 168  0.136  0.785  0.235-  61 2.43  49 2.45  53 2.46  43 2.46
 169  0.789  0.558  0.279-  63 2.43  70 2.45  59 2.45  48 2.46
 170  0.289  0.558  0.279-  62 2.43  71 2.45  58 2.45  49 2.46
 171  0.429  0.999  0.303-  62 2.43  52 2.45  72 2.45  66 2.46
 172  0.930  0.999  0.303-  63 2.43  53 2.44  73 2.45  67 2.46
 173  0.389  0.773  0.348-  76 2.43  72 2.46  68 2.46  80 2.47
 174  0.890  0.772  0.347-  77 2.42  81 2.46  69 2.46  73 2.46
 175  0.659  0.464  0.312-  76 2.43  50 2.45  75 2.46  70 2.46
 176  0.160  0.462  0.312-  77 2.42  51 2.45  74 2.45  71 2.45
 177  0.352  0.310  0.339-  62 2.43  68 2.45  74 2.46  66 2.46
 178  0.852  0.309  0.338-  63 2.42  69 2.45  75 2.45  67 2.46
 179  0.697  0.927  0.321-  79 2.43  70 2.45  73 2.45  64 2.46
 180  0.197  0.926  0.320-  78 2.42  71 2.45  72 2.45  65 2.46
 181  0.583  0.774  0.347-  76 2.43  66 2.45  89 2.45  70 2.45
 182  0.083  0.771  0.348-  77 2.42  67 2.45  71 2.46  88 2.47
 183  0.466  0.463  0.312-  76 2.43  64 2.45  58 2.45  68 2.46
 184  0.967  0.462  0.312-  77 2.43  65 2.45  59 2.45  69 2.45
 185  0.619  0.237  0.356-  79 2.43  86 2.45  64 2.46  75 2.46
 186  0.119  0.238  0.356-  78 2.42  74 2.45  87 2.46  65 2.46
 187  0.260  0.678  0.380-  78 2.44  88 2.44  68 2.45  82 2.48
 188  0.761  0.678  0.380-  79 2.43  69 2.44  89 2.44  83 2.48
 189  0.222  0.451  0.425-  92 2.41  96 2.43  88 2.46  84 2.47
 190  0.723  0.447  0.423-  97 2.38  93 2.40  85 2.45  89 2.46
 191  0.490  0.143  0.389-  92 2.44  66 2.45  91 2.46  86 2.47
 192  0.991  0.139  0.389-  93 2.41  67 2.44  90 2.45  87 2.46
 193  0.178  0.997  0.415-  78 2.41  84 2.43  82 2.43  90 2.45
 194  0.684  0.987  0.415-  79 2.41  83 2.42  85 2.43  91 2.46
 195  0.529  0.607  0.398-  95 2.42  80 2.45  89 2.46  86 2.46
 196  0.028  0.602  0.398-  94 2.43  81 2.45  87 2.45  88 2.46
 197  0.410  0.455  0.424-  92 2.41  86 2.48 105 2.51  82 2.53 106 2.65
 198  0.911  0.453  0.424-  93 2.42 104 2.46  83 2.46  87 2.47
 199  0.297  0.141  0.390-  92 2.42  80 2.44  74 2.46  84 2.46
 200  0.801  0.137  0.388-  93 2.42  81 2.44  85 2.44  75 2.45
 201  0.452  0.914  0.434-  91 2.46  80 2.47  95 2.48 102 2.54 101 3.05
 202  0.949  0.913  0.434-  94 2.44  81 2.46  90 2.47 103 2.48
 203  0.085  0.351  0.455-  98 2.37  94 2.40  84 2.42 104 2.46
 204  0.589  0.341  0.453-  99 2.33  85 2.39  95 2.43 105 2.48
 205  0.041  0.137  0.503- 100 2.44 104 2.44 107 2.48
 206  0.544  0.103  0.500- 101 2.42 105 2.45 108 2.48
 207  0.307  0.863  0.464- 106 2.31 107 2.37 102 2.41  82 2.42
 208  0.821  0.817  0.467- 108 2.42  83 2.44 103 2.47
 209  0.013  0.671  0.493- 100 2.37  98 2.42  94 2.45
 210  0.496  0.656  0.494- 101 2.49  99 2.49  95 2.52 106 2.55
 211  0.357  0.301  0.480-  96 2.40 105 2.43 102 2.46
 212  0.854  0.284  0.477-  97 2.39 104 2.45 103 2.46
 213  0.238  0.155  0.501-  98 2.37 102 2.46 107 2.49
 214  0.734  0.143  0.499-  99 2.38 103 2.43 108 2.45
 215  0.131  0.824  0.467- 100 2.35 107 2.42  90 2.46  96 2.46
 216  0.631  0.807  0.465- 101 2.40 108 2.42  97 2.43  91 2.47

  LATTYP: Found a simple monoclinic cell.
 ALAT       =     9.6507805880
 B/A-ratio  =     5.2844330606
 C/A-ratio  =     1.7180398757
 COS(beta)  =    -0.0140680627
  
  Lattice vectors:
  
 A1 = (   4.7667200000,   8.3914210000,   0.0000000000)
 A2 = (   0.0000000000,   0.0000000000,  50.9989040000)
 A3 = (  14.3001600000,  -8.3914210000,   0.0000000000)


Analysis of symmetry for initial positions (statically):
=====================================================================
 Subroutine PRICEL returns:
 Original cell was already a primitive cell.
 

 Routine SETGRP: Setting up the symmetry group for a 
 simple monoclinic supercell.


 Subroutine GETGRP returns: Found  2 space group operations
 (whereof  1 operations were pure point group operations)
 out of a pool of  4 trial point group operations.


The static configuration has the point symmetry C_1 .
 The point group associated with its full space group is S_2 .


Analysis of symmetry for dynamics (positions and initial velocities):
=====================================================================
 Subroutine PRICEL returns:
 Original cell was already a primitive cell.
 

 Routine SETGRP: Setting up the symmetry group for a 
 simple monoclinic supercell.


 Subroutine GETGRP returns: Found  2 space group operations
 (whereof  1 operations were pure point group operations)
 out of a pool of  4 trial point group operations.


The dynamic configuration has the point symmetry C_1 .
 The point group associated with its full space group is S_2 .


 Subroutine INISYM returns: Found  2 space group operations
 (whereof  1 operations are pure point group operations),
 and found     1 'primitive' translations


----------------------------------------------------------------------------------------

                                     Primitive cell                                     

  volume of cell :    8159.7337

  direct lattice vectors                    reciprocal lattice vectors
    19.066880000  0.000000000  0.000000000     0.052446966 -0.029792332  0.000000000
     4.766720000  8.391421000  0.000000000     0.000000000  0.119169328  0.000000000
     0.000000000  0.000000000 50.998904000     0.000000000  0.000000000  0.019608265

  length of vectors
    19.066880000  9.650780588 50.998904000     0.060318051  0.119169328  0.019608265

  position of ions in fractional coordinates (direct lattice)
     0.257666066  0.471201415  0.014167294
     0.747777684  0.458195314  0.014044679
     0.153944058  0.353529525  0.038683157
     0.647647516  0.334879183  0.037783047
     0.049198482  0.826132900  0.039615325
     0.544130346  0.810870144  0.037732750
     0.378663811  0.980892376  0.015439667
     0.864066646  0.974308971  0.009149083
     0.491158281  0.284430489  0.035676711
     0.912035597  0.588368436  0.041840415
     0.407290646  0.601270834  0.043054859
     0.202460911  0.913781172  0.021544500
     0.706039936  0.894212858  0.019185019
     0.869041681  0.248527716  0.059629111
     0.367437084  0.252965768  0.060491343
     0.083750252  0.146354075  0.082277656
     0.588042185  0.136604242  0.082477628
     0.979766953  0.019485917  0.114512476
     0.481079010  0.014900781  0.114319321
     0.873840890  0.511307501  0.116200766
     0.374765599  0.506513939  0.116658890
     0.185613244  0.664774279  0.081585187
     0.691819362  0.656015352  0.080762535
     0.826909180  0.908785764  0.078570447
     0.323417984  0.914089214  0.079487622
     0.739341726  0.252621754  0.117049287
     0.239481264  0.248756924  0.117925815
     0.030766289  0.585338827  0.099096257
     0.532385168  0.585512101  0.097884756
     0.697822603  0.921780492  0.137781540
     0.197241934  0.923031896  0.137372135
     0.913275813  0.831212506  0.159633072
     0.414107713  0.829042082  0.159468759
     0.811846752  0.694623595  0.192065522
     0.312129384  0.694033252  0.191826787
     0.704172637  0.189532054  0.193212372
     0.204392278  0.187906087  0.193668245
     0.021433970  0.336300951  0.158273184
     0.521311071  0.336160145  0.157789124
     0.655465333  0.591982088  0.156217305
     0.154870168  0.592939738  0.156690333
     0.570224968  0.932827976  0.195002525
     0.070198317  0.932509950  0.194989144
     0.862472209  0.263617186  0.175448908
     0.363063931  0.261685527  0.175510790
     0.528217172  0.601090626  0.214175153
     0.028114422  0.601762404  0.214375829
     0.744755379  0.507916377  0.236443347
     0.245039455  0.507454154  0.236535351
     0.642432545  0.372506846  0.268861649
     0.142716621  0.372044623  0.268953653
     0.535254894  0.865893788  0.270452713
     0.035423911  0.865658780  0.270424253
     0.852048089  0.014302220  0.234971747
     0.352217106  0.014067212  0.234943287
     0.486568948  0.269264181  0.233281901
     0.986119471  0.269941931  0.233354776
     0.400902052  0.610696819  0.272114099
     0.901351529  0.610019069  0.272041224
     0.693742290  0.939986559  0.252727447
     0.193729710  0.939975441  0.252668553
     0.359253828  0.278870374  0.291221847
     0.859356578  0.278198596  0.291021171
     0.575341616  0.185927748  0.313570213
     0.075624248  0.185337405  0.313331478
     0.473363287  0.050918918  0.345928241
     0.974195187  0.048748494  0.345763928
     0.366159929  0.543800855  0.347606876
     0.866037030  0.543660049  0.347122816
     0.683078722  0.692054913  0.311727755
     0.183298363  0.690428946  0.312183628
     0.317247032  0.947134024  0.310394475
     0.817273683  0.947452050  0.310407856
     0.232005667  0.287978912  0.349178695
     0.732600832  0.287021262  0.348705667
     0.524407069  0.618275473  0.329885210
     0.024998791  0.616343814  0.329947092
     0.189649397  0.958180508  0.367615460
     0.690230066  0.956929104  0.368024865
     0.406391990  0.865060219  0.391077679
     0.907704047  0.860475083  0.390884524
     0.299428815  0.743357758  0.422919372
     0.803720748  0.733607925  0.423119344
     0.195651638  0.223946648  0.424633465
     0.701857756  0.215187721  0.423810813
     0.512705401  0.373447061  0.388737110
     0.013630110  0.368653499  0.389195234
     0.148129274  0.627340246  0.388347713
     0.647989736  0.631205076  0.387471185
     0.060562820  0.971175236  0.426825553
     0.564054016  0.965871786  0.425908378
     0.355085832  0.294448899  0.407511244
     0.856704711  0.294622173  0.406299743
     0.018429319  0.631434284  0.445767889
     0.520033916  0.626996232  0.444905657
     0.239824484  0.545082817  0.467612953
     0.733527942  0.526432475  0.466712843
     0.139694316  0.421765686  0.491352321
     0.629805934  0.408759585  0.491229706
     0.023405354  0.905652029  0.496246917
     0.508808189  0.899068624  0.489956333
     0.343341654  0.069091856  0.467664250
     0.838273518  0.053829100  0.465781675
     0.975435403  0.291592564  0.463556585
     0.480180354  0.278690166  0.462342141
     0.396312719  0.595531511  0.469719289
     0.181432064  0.985748142  0.486210981
     0.685011089  0.966179828  0.483851500
     0.066315713  0.063440479  0.038621886
     0.580604153  0.016599240  0.041587409
     0.343856280  0.776933164  0.005506372
     0.846245144  0.743118674  0.002574228
     0.033403468  0.595490643  0.028212267
     0.530574491  0.578782096  0.025143623
     0.391735115  0.224200071  0.011687001
     0.874192058  0.209265675  0.012029772
     0.256121356  0.073108964  0.040129829
     0.756869952  0.055982948  0.038849476
     0.153245747  0.737178286  0.006054170
     0.649363177  0.724641697  0.004000514
     0.298605239  0.539070970  0.052708679
     0.802496104  0.528866825  0.049939003
     0.938001431  0.966929432  0.071637574
     0.435757784  0.965784238  0.071714492
     0.896507761  0.740748252  0.116592730
     0.397248017  0.737054559  0.116344302
     0.164880459  0.433308319  0.081976938
     0.665949820  0.429460808  0.080044536
     0.859060417  0.277583468  0.106968597
     0.358922945  0.272634723  0.107739758
     0.203555966  0.892539341  0.090294113
     0.709462425  0.883388490  0.090878873
     0.086785388  0.742550587  0.116992135
     0.590462518  0.738645557  0.115849429
     0.975983193  0.426807869  0.081107106
     0.477528112  0.424925951  0.081535101
     0.126141526  0.202346656  0.125156706
     0.627804969  0.201548739  0.124991440
     0.768443778  0.642409786  0.149624040
     0.267989267  0.643157453  0.149368280
     0.727550829  0.417835965  0.193285812
     0.228097768  0.416153128  0.193492230
     0.997653786  0.108258740  0.157899284
     0.498308509  0.106747122  0.157724554
     0.690330955  0.954339068  0.184940309
     0.190354248  0.953307282  0.184748200
     0.035067736  0.571410823  0.167162855
     0.535641141  0.570305115  0.166815663
     0.920595162  0.417478142  0.193290783
     0.421123229  0.416507644  0.193087552
     0.804386267  0.109341486  0.157846958
     0.304786778  0.106317302  0.158442293
     0.957720848  0.881239447  0.202045239
     0.458018604  0.880502579  0.201905760
     0.598747931  0.321631728  0.226354551
     0.098363439  0.322170612  0.226512057
     0.558586496  0.094702600  0.270445924
     0.058483113  0.094515620  0.270317834
     0.828987887  0.785446380  0.235078166
     0.328884504  0.785259400  0.234950076
     0.520898226  0.631685240  0.261519320
     0.021222981  0.631495453  0.261703867
     0.866249019  0.248465547  0.243692133
     0.366573774  0.248275760  0.243876680
     0.751551032  0.095316948  0.270230472
     0.251771922  0.094919387  0.270189946
     0.635700078  0.785041613  0.235206054
     0.135920968  0.784644052  0.235165528
     0.789107561  0.557790388  0.278883943
     0.288723069  0.558329272  0.279041449
     0.429453396  0.999458421  0.303490240
     0.929751152  0.998721553  0.303350761
     0.389162491  0.773213878  0.347671446
     0.889817214  0.771702260  0.347496716
     0.659374232  0.463807872  0.311903770
     0.159921171  0.462125035  0.312110188
     0.351829859  0.309655885  0.338580337
     0.852403264  0.308550177  0.338233145
     0.697116752  0.926654718  0.320647800
     0.197140045  0.925622932  0.320455691
     0.582684222  0.773644698  0.346953707
     0.083084733  0.770620514  0.347549042
     0.466347771  0.463453356  0.312308448
     0.966875838  0.462482858  0.312105217
     0.619481733  0.236804547  0.356027720
     0.119027222  0.237552214  0.355771960
     0.259666031  0.678412261  0.380404560
     0.761329474  0.677614344  0.380239294
     0.221522180  0.450500192  0.425351464
     0.722591541  0.446652681  0.423419062
     0.490222983  0.142906441  0.389052698
     0.990963239  0.139212748  0.388804270
     0.178008575  0.996572510  0.414517127
     0.683915034  0.987421659  0.415101887
     0.528548055  0.607326277  0.397656242
     0.028410583  0.602377532  0.398427403
     0.409942888  0.455035049  0.423860899
     0.911487807  0.453153131  0.424288894
     0.297008482  0.141315443  0.389546571
     0.800685612  0.137410413  0.388403865
     0.451714216  0.914177762  0.433681508
     0.949470569  0.913032568  0.433758426
     0.084974896  0.351094175  0.455456997
     0.588865761  0.340890030  0.452687321
     0.041225856  0.136842326  0.502821772
     0.543614720  0.103027836  0.499889628
     0.306866847  0.863361760  0.463809591
     0.821155287  0.816520521  0.466775114
     0.013279942  0.670695325  0.493366228
     0.495736885  0.655760929  0.493708999
     0.356896509  0.301178904  0.480253377
     0.854067532  0.284470357  0.477184733
     0.238108823  0.155319303  0.501395486
     0.734226253  0.142782714  0.499341830
     0.130601048  0.823978052  0.466546524
     0.631349644  0.806852036  0.465266171

  ion indices of the primitive-cell ions
   primitive index   ion index
                 1           1
                 2           2
                 3           3
                 4           4
                 5           5
                 6           6
                 7           7
                 8           8
                 9           9
                10          10
                11          11
                12          12
                13          13
                14          14
                15          15
                16          16
                17          17
                18          18
                19          19
                20          20
                21          21
                22          22
                23          23
                24          24
                25          25
                26          26
                27          27
                28          28
                29          29
                30          30
                31          31
                32          32
                33          33
                34          34
                35          35
                36          36
                37          37
                38          38
                39          39
                40          40
                41          41
                42          42
                43          43
                44          44
                45          45
                46          46
                47          47
                48          48
                49          49
                50          50
                51          51
                52          52
                53          53
                54          54
                55          55
                56          56
                57          57
                58          58
                59          59
                60          60
                61          61
                62          62
                63          63
                64          64
                65          65
                66          66
                67          67
                68          68
                69          69
                70          70
                71          71
                72          72
                73          73
                74          74
                75          75
                76          76
                77          77
                78          78
                79          79
                80          80
                81          81
                82          82
                83          83
                84          84
                85          85
                86          86
                87          87
                88          88
                89          89
                90          90
                91          91
                92          92
                93          93
                94          94
                95          95
                96          96
                97          97
                98          98
                99          99
               100         100
               101         101
               102         102
               103         103
               104         104
               105         105
               106         106
               107         107
               108         108
               109         109
               110         110
               111         111
               112         112
               113         113
               114         114
               115         115
               116         116
               117         117
               118         118
               119         119
               120         120
               121         121
               122         122
               123         123
               124         124
               125         125
               126         126
               127         127
               128         128
               129         129
               130         130
               131         131
               132         132
               133         133
               134         134
               135         135
               136         136
               137         137
               138         138
               139         139
               140         140
               141         141
               142         142
               143         143
               144         144
               145         145
               146         146
               147         147
               148         148
               149         149
               150         150
               151         151
               152         152
               153         153
               154         154
               155         155
               156         156
               157         157
               158         158
               159         159
               160         160
               161         161
               162         162
               163         163
               164         164
               165         165
               166         166
               167         167
               168         168
               169         169
               170         170
               171         171
               172         172
               173         173
               174         174
               175         175
               176         176
               177         177
               178         178
               179         179
               180         180
               181         181
               182         182
               183         183
               184         184
               185         185
               186         186
               187         187
               188         188
               189         189
               190         190
               191         191
               192         192
               193         193
               194         194
               195         195
               196         196
               197         197
               198         198
               199         199
               200         200
               201         201
               202         202
               203         203
               204         204
               205         205
               206         206
               207         207
               208         208
               209         209
               210         210
               211         211
               212         212
               213         213
               214         214
               215         215
               216         216

----------------------------------------------------------------------------------------



 KPOINTS: pymatgen with grid density = 657 / numbe

Automatic generation of k-mesh.
 Grid dimensions read from file:
 generate k-points for:    1    3    1

 Generating k-lattice:

  Cartesian coordinates                     Fractional coordinates (reciprocal lattice)
     0.052446966 -0.029792332  0.000000000     1.000000000 -0.000000000  0.000000000
     0.000000000  0.039723109  0.000000000     0.000000000  0.333333333  0.000000000
     0.000000000  0.000000000  0.019608265     0.000000000  0.000000000  1.000000000

  Length of vectors
     0.060318051  0.039723109  0.019608265

  Shift w.r.t. Gamma in fractional coordinates (k-lattice)
     0.000000000  0.000000000  0.000000000

 
 Subroutine IBZKPT returns following result:
 ===========================================
 
 Found      2 irreducible k-points:
 
 Following reciprocal coordinates:
            Coordinates               Weight
  0.000000  0.000000  0.000000      1.000000
  0.000000  0.333333  0.000000      2.000000
 
 Following cartesian coordinates:
            Coordinates               Weight
  0.000000  0.000000  0.000000      1.000000
  0.000000  0.039723  0.000000      2.000000
 


--------------------------------------------------------------------------------------------------------




 Dimension of arrays:
   k-points           NKPTS =      2   k-points in BZ     NKDIM =      2   number of bands    NBANDS=   1040
   number of dos      NEDOS =    301   number of ions     NIONS =    216
   non local maximal  LDIM  =      6   non local SUM 2l+1 LMDIM =     18
   total plane-waves  NPLWV = ******
   max r-space proj   IRMAX =   6799   max aug-charges    IRDMAX= 189525
   dimension x,y,z NGX =   144 NGY =   72 NGZ =  384
   dimension x,y,z NGXF=   288 NGYF=  144 NGZF=  768
   support grid    NGXF=   576 NGYF=  288 NGZF= 1536
   ions per type =             108 108
   NGX,Y,Z   is equivalent  to a cutoff of  12.56, 12.40, 12.52 a.u.
   NGXF,Y,Z  is equivalent  to a cutoff of  25.11, 24.81, 25.04 a.u.

 SYSTEM =  unknown system                          
 POSCAR =  Pd108 Se108                             

 Startparameter for this run:
   NWRITE =      2    write-flag & timer
   PREC   = accura    normal or accurate (medium, high low for compatibility)
   ISTART =      0    job   : 0-new  1-cont  2-samecut
   ICHARG =      2    charge: 1-file 2-atom 10-const
   ISPIN  =      1    spin polarized calculation?
   LNONCOLLINEAR =      F non collinear calculations
   LSORBIT =      F    spin-orbit coupling
   INIWAV =      1    electr: 0-lowe 1-rand  2-diag
   LASPH  =      T    aspherical Exc in radial PAW
 Electronic Relaxation 1
   ENCUT  =  520.0 eV  38.22 Ry    6.18 a.u.  35.45 17.94 94.82*2*pi/ulx,y,z
   ENINI  =  520.0     initial cutoff
   ENAUG  =  446.8 eV  augmentation charge cutoff
   NELM   =    200;   NELMIN=  2; NELMDL= -5     # of ELM steps 
   EDIFF  = 0.1E-04   stopping-criterion for ELM
   LREAL  =      T    real-space projection
   NLSPLINE    = F    spline interpolate recip. space projectors
   LCOMPAT=      F    compatible to vasp.4.4
   GGA_COMPAT  = T    GGA compatible to vasp.4.4-vasp.4.6
   LMAXPAW     = -100 max onsite density
   LMAXMIX     =    4 max onsite mixed and CHGCAR
   VOSKOWN=      0    Vosko Wilk Nusair interpolation
   ROPT   =   -0.00025  -0.00025
 Ionic relaxation
   EDIFFG = -.5E-01   stopping-criterion for IOM
   NSW    =     99    number of steps for IOM
   NBLOCK =      1;   KBLOCK =     99    inner block; outer block 
   IBRION =      2    ionic relax: 0-MD 1-quasi-New 2-CG
   NFREE  =      1    steps in history (QN), initial steepest desc. (CG)
   ISIF   =      2    stress and relaxation
   IWAVPR =     11    prediction:  0-non 1-charg 2-wave 3-comb
   ISYM   =      2    0-nonsym 1-usesym 2-fastsym
   LCORR  =      T    Harris-Foulkes like correction to forces

   POTIM  = 0.5000    time-step for ionic-motion
   TEIN   =    0.0    initial temperature
   TEBEG  =    0.0;   TEEND  =   0.0 temperature during run
   SMASS  =  -3.00    Nose mass-parameter (am)
   estimated Nose-frequenzy (Omega)   =  0.10E-29 period in steps = 0.13E+47 mass=  -0.831E-26a.u.
   SCALEE = 1.0000    scale energy and forces
   NPACO  =    256;   APACO  = 10.0  distance and # of slots for P.C.
   PSTRESS=    0.0 pullay stress

  Mass of Ions in am
   POMASS = 106.42 78.96
  Ionic Valenz
   ZVAL   =  10.00  6.00
  Atomic Wigner-Seitz radii
   RWIGS  =  -1.00 -1.00
  virtual crystal weights 
   VCA    =   1.00  1.00
   NELECT =    1728.0000    total number of electrons
   NUPDOWN=      -1.0000    fix difference up-down

 DOS related values:
   EMIN   =  10.00;   EMAX   =-10.00  energy-range for DOS
   EFERMI =   0.00
   ISMEAR =     0;   SIGMA  =   0.05  broadening in eV -4-tet -1-fermi 0-gaus

 Electronic relaxation 2 (details)
   IALGO  =     68    algorithm
   LDIAG  =      T    sub-space diagonalisation (order eigenvalues)
   LSUBROT=      F    optimize rotation matrix (better conditioning)
   TURBO    =      0    0=normal 1=particle mesh
   IRESTART =      0    0=no restart 2=restart with 2 vectors
   NREBOOT  =      0    no. of reboots
   NMIN     =      0    reboot dimension
   EREF     =   0.00    reference energy to select bands
   IMIX   =      4    mixing-type and parameters
     AMIX     =   0.40;   BMIX     =  1.00
     AMIX_MAG =   1.60;   BMIX_MAG =  1.00
     AMIN     =   0.10
     WC   =   100.;   INIMIX=   1;  MIXPRE=   1;  MAXMIX= -45

 Intra band minimization:
   WEIMIN = 0.0010     energy-eigenvalue tresh-hold
   EBREAK =  0.24E-08  absolut break condition
   DEPER  =   0.30     relativ break condition  

   TIME   =   0.40     timestep for ELM

  volume/ion in A,a.u.               =      37.78       254.93
  Fermi-wavevector in a.u.,A,eV,Ry     =   0.975807  1.844008 12.955467  0.952200
  Thomas-Fermi vector in A             =   2.106376

 Write flags
   LWAVE        =      F    write WAVECAR
   LDOWNSAMPLE  =      F    k-point downsampling of WAVECAR
   LCHARG       =      T    write CHGCAR
   LVTOT        =      F    write LOCPOT, total local potential
   LVHAR        =      F    write LOCPOT, Hartree potential only
   LELF         =      F    write electronic localiz. function (ELF)
   LORBIT       =     11    0 simple, 1 ext, 2 COOP (PROOUT), +10 PAW based schemes


 Dipole corrections
   LMONO  =      F    monopole corrections only (constant potential shift)
   LDIPOL =      F    correct potential (dipole corrections)
   IDIPOL =      0    1-x, 2-y, 3-z, 4-all directions 
   EPSILON=  1.0000000 bulk dielectric constant

 Exchange correlation treatment:
   GGA     =    --    GGA type
   LEXCH   =     8    internal setting for exchange type
   LIBXC   =     F    Libxc                    
   VOSKOWN =     0    Vosko Wilk Nusair interpolation
   LHFCALC =     F    Hartree Fock is set to
   LHFONE  =     F    Hartree Fock one center treatment
   AEXX    =    0.0000 exact exchange contribution

 vdW DFT:
   LUSE_VDW   =     T    switch on vdW DFT
   Zab_VDW    =-.8491    correlation parameter
   PARAM1     =0.1234
   PARAM2     =1.0000
   PARAM3     =0.0000
   -- rVV10 --
   BPARAM     =15.7000
   CPARAM     = 0.0093

 Linear response parameters
   LEPSILON=     F    determine dielectric tensor
   LRPA    =     F    only Hartree local field effects (RPA)
   LNABLA  =     F    use nabla operator in PAW spheres
   LVEL    =     F    velocity operator in full k-point grid
   CSHIFT  =0.1000    complex shift for real part using Kramers Kronig
   OMEGAMAX=  -1.0    maximum frequency
   DEG_THRESHOLD= 0.2000000E-02 threshold for treating states as degnerate
   RTIME   =   -0.100 relaxation time in fs
  (WPLASMAI=    0.000 imaginary part of plasma frequency in eV, 0.658/RTIME)
   DFIELD  = 0.0000000 0.0000000 0.0000000 field for delta impulse in time

  Optional k-point grid parameters
   LKPOINTS_OPT  =     F    use optional k-point grid
   KPOINTS_OPT_MODE=     1    mode for optional k-point grid

 Orbital magnetization related:
   ORBITALMAG=     F  switch on orbital magnetization
   LCHIMAG   =     F  perturbation theory with respect to B field
   DQ        =  0.001000  dq finite difference perturbation B field
   LLRAUG    =     F  two centre corrections for induced B field

 -----------------------------------------------------------------------------
|                                                                             |
|           W    W    AA    RRRRR   N    N  II  N    N   GGGG   !!!           |
|           W    W   A  A   R    R  NN   N  II  NN   N  G    G  !!!           |
|           W    W  A    A  R    R  N N  N  II  N N  N  G       !!!           |
|           W WW W  AAAAAA  RRRRR   N  N N  II  N  N N  G  GGG   !            |
|           WW  WW  A    A  R   R   N   NN  II  N   NN  G    G                |
|           W    W  A    A  R    R  N    N  II  N    N   GGGG   !!!           |
|                                                                             |
|     One of the lattice vectors is very long (>50 A), but AMIN is rather     |
|     large. This can spoil convergence since charge sloshing might occur     |
|     along the long lattice vector. If problems with convergence are         |
|     observed, try to decrease AMIN to a smaller value (e.g. 0.01).          |
|     Note: This warning only applies if the self-consistency cycle is        |
|     used.                                                                   |
|                                                                             |
 -----------------------------------------------------------------------------



--------------------------------------------------------------------------------------------------------


 conjugate gradient relaxation of ions
 charge density and potential will be updated during run
 non-spin polarized calculation
 RMM-DIIS sequential band-by-band and
  variant of blocked Davidson during initial phase
 perform sub-space diagonalisation
    before iterative eigenvector-optimisation
 modified Broyden-mixing scheme, WC =      100.0
 initial mixing is a Kerker type mixing with AMIX =  0.4000 and BMIX =      1.0000
 Hartree-type preconditioning will be used
 using additional bands          176
 real space projection scheme for non local part
 use partial core corrections
 calculate Harris-corrections to forces   (improved forces if not selfconsistent)
 use gradient corrections 
 use of overlap-Matrix (Vanderbilt PP)
 Gauss-broadening in eV      SIGMA  =   0.05


--------------------------------------------------------------------------------------------------------


  energy-cutoff  :      520.00
  volume of cell :     8159.73
      direct lattice vectors                 reciprocal lattice vectors
    19.066880000  0.000000000  0.000000000     0.052446966 -0.029792332  0.000000000
     4.766720000  8.391421000  0.000000000     0.000000000  0.119169328  0.000000000
     0.000000000  0.000000000 50.998904000     0.000000000  0.000000000  0.019608265

  length of vectors
    19.066880000  9.650780588 50.998904000     0.060318051  0.119169328  0.019608265



 k-points in units of 2pi/SCALE and weight: pymatgen with grid density = 657 / numbe
   0.00000000  0.00000000  0.00000000       0.333
   0.00000000  0.03972311  0.00000000       0.667

 k-points in reciprocal lattice and weights: pymatgen with grid density = 657 / numbe
   0.00000000  0.00000000  0.00000000       0.333
   0.00000000  0.33333333  0.00000000       0.667

 position of ions in fractional coordinates (direct lattice) 
   0.25766607  0.47120141  0.01416729
   0.74777768  0.45819531  0.01404468
   0.15394406  0.35352953  0.03868316
   0.64764752  0.33487918  0.03778305
   0.04919848  0.82613290  0.03961533
   0.54413035  0.81087014  0.03773275
   0.37866381  0.98089238  0.01543967
   0.86406665  0.97430897  0.00914908
   0.49115828  0.28443049  0.03567671
   0.91203560  0.58836844  0.04184042
   0.40729065  0.60127083  0.04305486
   0.20246091  0.91378117  0.02154450
   0.70603994  0.89421286  0.01918502
   0.86904168  0.24852772  0.05962911
   0.36743708  0.25296577  0.06049134
   0.08375025  0.14635408  0.08227766
   0.58804219  0.13660424  0.08247763
   0.97976695  0.01948592  0.11451248
   0.48107901  0.01490078  0.11431932
   0.87384089  0.51130750  0.11620077
   0.37476560  0.50651394  0.11665889
   0.18561324  0.66477428  0.08158519
   0.69181936  0.65601535  0.08076253
   0.82690918  0.90878576  0.07857045
   0.32341798  0.91408921  0.07948762
   0.73934173  0.25262175  0.11704929
   0.23948126  0.24875692  0.11792581
   0.03076629  0.58533883  0.09909626
   0.53238517  0.58551210  0.09788476
   0.69782260  0.92178049  0.13778154
   0.19724193  0.92303190  0.13737214
   0.91327581  0.83121251  0.15963307
   0.41410771  0.82904208  0.15946876
   0.81184675  0.69462359  0.19206552
   0.31212938  0.69403325  0.19182679
   0.70417264  0.18953205  0.19321237
   0.20439228  0.18790609  0.19366824
   0.02143397  0.33630095  0.15827318
   0.52131107  0.33616014  0.15778912
   0.65546533  0.59198209  0.15621730
   0.15487017  0.59293974  0.15669033
   0.57022497  0.93282798  0.19500253
   0.07019832  0.93250995  0.19498914
   0.86247221  0.26361719  0.17544891
   0.36306393  0.26168553  0.17551079
   0.52821717  0.60109063  0.21417515
   0.02811442  0.60176240  0.21437583
   0.74475538  0.50791638  0.23644335
   0.24503945  0.50745415  0.23653535
   0.64243255  0.37250685  0.26886165
   0.14271662  0.37204462  0.26895365
   0.53525489  0.86589379  0.27045271
   0.03542391  0.86565878  0.27042425
   0.85204809  0.01430222  0.23497175
   0.35221711  0.01406721  0.23494329
   0.48656895  0.26926418  0.23328190
   0.98611947  0.26994193  0.23335478
   0.40090205  0.61069682  0.27211410
   0.90135153  0.61001907  0.27204122
   0.69374229  0.93998656  0.25272745
   0.19372971  0.93997544  0.25266855
   0.35925383  0.27887037  0.29122185
   0.85935658  0.27819860  0.29102117
   0.57534162  0.18592775  0.31357021
   0.07562425  0.18533741  0.31333148
   0.47336329  0.05091892  0.34592824
   0.97419519  0.04874849  0.34576393
   0.36615993  0.54380086  0.34760688
   0.86603703  0.54366005  0.34712282
   0.68307872  0.69205491  0.31172776
   0.18329836  0.69042895  0.31218363
   0.31724703  0.94713402  0.31039447
   0.81727368  0.94745205  0.31040786
   0.23200567  0.28797891  0.34917870
   0.73260083  0.28702126  0.34870567
   0.52440707  0.61827547  0.32988521
   0.02499879  0.61634381  0.32994709
   0.18964940  0.95818051  0.36761546
   0.69023007  0.95692910  0.36802486
   0.40639199  0.86506022  0.39107768
   0.90770405  0.86047508  0.39088452
   0.29942881  0.74335776  0.42291937
   0.80372075  0.73360792  0.42311934
   0.19565164  0.22394665  0.42463347
   0.70185776  0.21518772  0.42381081
   0.51270540  0.37344706  0.38873711
   0.01363011  0.36865350  0.38919523
   0.14812927  0.62734025  0.38834771
   0.64798974  0.63120508  0.38747119
   0.06056282  0.97117524  0.42682555
   0.56405402  0.96587179  0.42590838
   0.35508583  0.29444890  0.40751124
   0.85670471  0.29462217  0.40629974
   0.01842932  0.63143428  0.44576789
   0.52003392  0.62699623  0.44490566
   0.23982448  0.54508282  0.46761295
   0.73352794  0.52643247  0.46671284
   0.13969432  0.42176569  0.49135232
   0.62980593  0.40875959  0.49122971
   0.02340535  0.90565203  0.49624692
   0.50880819  0.89906862  0.48995633
   0.34334165  0.06909186  0.46766425
   0.83827352  0.05382910  0.46578167
   0.97543540  0.29159256  0.46355658
   0.48018035  0.27869017  0.46234214
   0.39631272  0.59553151  0.46971929
   0.18143206  0.98574814  0.48621098
   0.68501109  0.96617983  0.48385150
   0.06631571  0.06344048  0.03862189
   0.58060415  0.01659924  0.04158741
   0.34385628  0.77693316  0.00550637
   0.84624514  0.74311867  0.00257423
   0.03340347  0.59549064  0.02821227
   0.53057449  0.57878210  0.02514362
   0.39173511  0.22420007  0.01168700
   0.87419206  0.20926568  0.01202977
   0.25612136  0.07310896  0.04012983
   0.75686995  0.05598295  0.03884948
   0.15324575  0.73717829  0.00605417
   0.64936318  0.72464170  0.00400051
   0.29860524  0.53907097  0.05270868
   0.80249610  0.52886683  0.04993900
   0.93800143  0.96692943  0.07163757
   0.43575778  0.96578424  0.07171449
   0.89650776  0.74074825  0.11659273
   0.39724802  0.73705456  0.11634430
   0.16488046  0.43330832  0.08197694
   0.66594982  0.42946081  0.08004454
   0.85906042  0.27758347  0.10696860
   0.35892294  0.27263472  0.10773976
   0.20355597  0.89253934  0.09029411
   0.70946243  0.88338849  0.09087887
   0.08678539  0.74255059  0.11699214
   0.59046252  0.73864556  0.11584943
   0.97598319  0.42680787  0.08110711
   0.47752811  0.42492595  0.08153510
   0.12614153  0.20234666  0.12515671
   0.62780497  0.20154874  0.12499144
   0.76844378  0.64240979  0.14962404
   0.26798927  0.64315745  0.14936828
   0.72755083  0.41783597  0.19328581
   0.22809777  0.41615313  0.19349223
   0.99765379  0.10825874  0.15789928
   0.49830851  0.10674712  0.15772455
   0.69033095  0.95433907  0.18494031
   0.19035425  0.95330728  0.18474820
   0.03506774  0.57141082  0.16716286
   0.53564114  0.57030511  0.16681566
   0.92059516  0.41747814  0.19329078
   0.42112323  0.41650764  0.19308755
   0.80438627  0.10934149  0.15784696
   0.30478678  0.10631730  0.15844229
   0.95772085  0.88123945  0.20204524
   0.45801860  0.88050258  0.20190576
   0.59874793  0.32163173  0.22635455
   0.09836344  0.32217061  0.22651206
   0.55858650  0.09470260  0.27044592
   0.05848311  0.09451562  0.27031783
   0.82898789  0.78544638  0.23507817
   0.32888450  0.78525940  0.23495008
   0.52089823  0.63168524  0.26151932
   0.02122298  0.63149545  0.26170387
   0.86624902  0.24846555  0.24369213
   0.36657377  0.24827576  0.24387668
   0.75155103  0.09531695  0.27023047
   0.25177192  0.09491939  0.27018995
   0.63570008  0.78504161  0.23520605
   0.13592097  0.78464405  0.23516553
   0.78910756  0.55779039  0.27888394
   0.28872307  0.55832927  0.27904145
   0.42945340  0.99945842  0.30349024
   0.92975115  0.99872155  0.30335076
   0.38916249  0.77321388  0.34767145
   0.88981721  0.77170226  0.34749672
   0.65937423  0.46380787  0.31190377
   0.15992117  0.46212503  0.31211019
   0.35182986  0.30965589  0.33858034
   0.85240326  0.30855018  0.33823314
   0.69711675  0.92665472  0.32064780
   0.19714005  0.92562293  0.32045569
   0.58268422  0.77364470  0.34695371
   0.08308473  0.77062051  0.34754904
   0.46634777  0.46345336  0.31230845
   0.96687584  0.46248286  0.31210522
   0.61948173  0.23680455  0.35602772
   0.11902722  0.23755221  0.35577196
   0.25966603  0.67841226  0.38040456
   0.76132947  0.67761434  0.38023929
   0.22152218  0.45050019  0.42535146
   0.72259154  0.44665268  0.42341906
   0.49022298  0.14290644  0.38905270
   0.99096324  0.13921275  0.38880427
   0.17800857  0.99657251  0.41451713
   0.68391503  0.98742166  0.41510189
   0.52854806  0.60732628  0.39765624
   0.02841058  0.60237753  0.39842740
   0.40994289  0.45503505  0.42386090
   0.91148781  0.45315313  0.42428889
   0.29700848  0.14131544  0.38954657
   0.80068561  0.13741041  0.38840386
   0.45171422  0.91417776  0.43368151
   0.94947057  0.91303257  0.43375843
   0.08497490  0.35109417  0.45545700
   0.58886576  0.34089003  0.45268732
   0.04122586  0.13684233  0.50282177
   0.54361472  0.10302784  0.49988963
   0.30686685  0.86336176  0.46380959
   0.82115529  0.81652052  0.46677511
   0.01327994  0.67069532  0.49336623
   0.49573689  0.65576093  0.49370900
   0.35689651  0.30117890  0.48025338
   0.85406753  0.28447036  0.47718473
   0.23810882  0.15531930  0.50139549
   0.73422625  0.14278271  0.49934183
   0.13060105  0.82397805  0.46654652
   0.63134964  0.80685204  0.46526617

 position of ions in cartesian coordinates  (Angst):
   7.15897316  3.95404945  0.72251645
  16.44187614  3.84490978  0.71626325
   4.62040914  2.96661508  1.97279860
  13.94489277  2.81011221  1.92689399
   4.87600577  6.93242896  2.02033816
  14.24005894  6.80435276  1.92432888
  11.89557675  8.23108088  0.78740612
  21.11931312  8.17583676  0.46659323
  10.72065651  2.38677598  1.81947318
  20.19426087  4.93724725  2.13381532
  10.63185158  5.04551670  2.19575064
   8.21603688  7.66792251  1.09874591
  17.72444105  7.50371655  0.97841495
  17.75457547  2.08550070  3.04101931
   8.21169577  2.12274225  3.08499219
   2.29448491  1.22811866  4.19607030
  11.86328395  1.14630370  4.20626865
  18.77398282  0.16351453  5.84001075
   9.24370360  0.12503873  5.83016007
  19.09867908  4.29059650  5.92611173
   9.56002083  4.25037170  5.94947552
   6.70785830  5.57840085  4.16075510
  16.31787825  5.50490100  4.11880076
  20.09850538  7.62600395  4.00700666
  10.52377922  7.67050742  4.05378160
  15.30111713  2.11985549  5.96938534
   5.75191512  2.08742407  6.01408730
   3.37676343  4.91182452  5.05380048
  12.94189635  4.91327854  4.99201528
  17.69916935  7.73504817  7.02670753
   8.16062290  7.74554924  7.00582835
  21.37547761  6.97505408  8.14111169
  11.84755355  6.95684114  8.13273195
  18.79046077  5.82887902  9.79513114
   9.25959569  5.82392521  9.78295590
  14.32982140  1.59044326  9.85361923
   4.79281874  1.57679908  9.87686821
   2.01173140  2.82204287  8.07175894
  11.54215692  2.82086130  8.04707241
  15.31949171  4.96757093  7.96691134
   5.77926862  4.97560697  7.99103525
  15.31894082  7.82775227  9.94491506
   5.78347672  7.82508358  9.94423262
  17.70124343  2.21212279  8.94770200
   8.16987804  2.19591343  8.95085794
  12.93668413  5.04400450 10.92269808
   3.40448720  5.04964167 10.93293233
  16.62125660  4.26214016 12.05835153
   7.09102975  4.25826145 12.06304365
  14.02482008  3.12586177 13.71164943
   4.49459323  3.12198306 13.71634155
  14.33311407  7.26607932 13.79279196
   4.80177648  7.26410726 13.79134051
  16.31407335  0.12001595 11.98330158
   6.78273575  0.11804390 11.98185012
  10.56085870  2.25950911 11.89712127
  20.08895922  2.26519639 11.90083783
  10.55497206  5.12461411 13.87752082
  20.09375154  5.11892682 13.87380425
  17.70815372  7.88782295 12.88882281
   8.17442087  7.88772966 12.88581927
   8.17914663  2.34011872 14.85199500
  17.71134356  2.33448154 14.84176075
  11.85623507  1.56019801 15.99173718
   2.32536999  1.55524419 15.97956195
   9.26827720  0.42728208 17.64196114
  18.80723315  0.40906914 17.63358139
   9.57367383  4.56326191 17.72756967
  19.10409936  4.56208035 17.70288315
  16.32301202  5.80732413 15.89777387
   6.78600936  5.79367996 15.92102285
  10.56363378  7.94780034 15.82977802
  20.09909787  7.95046903 15.83046047
   5.79633905  2.41655229 17.80773075
  15.33656214  2.40851625 17.78360684
  12.94595272  5.18820979 16.82378415
   3.41458733  5.17200042 16.82694009
   8.18340048  8.04049604 18.74798555
  17.72194693  8.02999498 18.76886474
  11.87212716  7.25908449 19.94453302
  21.40872794  7.22060868 19.93468233
   9.25255157  6.23782790 21.56842443
  18.82135062  6.15601295 21.57862279
   4.79795727  1.87923060 21.65584132
  14.40797722  1.80573076 21.61388698
  11.55580993  3.13375151 19.82516656
   2.01715168  3.09352671 19.84853036
   5.81471839  5.26427611 19.80530774
  15.36392041  5.29670753 19.76060578
   5.78406444  8.14954027 21.76763542
  15.35879060  8.10503679 21.72086049
   8.17393440  2.47084468 20.78262681
  17.73906733  2.47229869 20.72084160
   3.36126005  5.29863091 22.73367378
  12.90413976  5.26138935 22.68970090
   7.17096182  4.57401940 23.84774809
  16.49544545  4.41751652 23.80184349
   4.67397369  3.53921343 25.05842984
  13.95687666  3.43007377 25.05217663
   4.76325671  7.59970745 25.30804886
  13.98699307  7.54446333 24.98723597
   6.87579565  0.57977885 23.85036420
  16.23984882  0.45170264 23.75435492
  19.98844988  2.44687596 23.64087777
  10.48397917  2.33860651 23.57894245
  10.39517902  4.99735563 23.95516890
   8.15812878  8.27182766 24.79622713
  17.66653294  8.10762170 24.67589617
   1.56683675  0.53235577  1.96967384
  11.14943364  0.13929121  2.12091230
  10.25968927  6.51957327  0.28081894
  19.67749326  6.23582165  0.13128278
   3.47543708  4.99701269  1.43879468
  12.87529234  4.85680423  1.28229724
   8.53786539  1.88135718  0.59602423
  17.66562594  1.75603638  0.61350519
   5.23192512  0.61348809  2.04657727
  14.69800359  0.46977648  1.98128070
   6.43584074  6.18597335  0.30875601
  15.83549385  6.08077355  0.20402185
   8.26307064  4.52357146  2.68808485
  17.82205699  4.43794418  2.54683439
  22.49384259  8.11391194  3.65343778
  12.91216442  8.10430214  3.65736048
  20.62454541  6.21593044  5.94610144
  11.08761298  6.18493510  5.93343187
   5.20921536  3.63607252  4.18073401
  14.74470474  3.60378645  4.08218358
  17.70276455  2.32931974  5.45528120
   8.14311410  2.28779274  5.49460957
   8.13566230  7.48967337  4.60490082
  17.73810051  7.41288472  4.63472293
   5.19425731  6.23105459  5.96647067
  14.77919452  6.19828583  5.90819388
  20.64342803  3.58152451  4.13637352
  11.13047424  3.56573255  4.15820077
   3.36965519  1.69797598  6.38285485
  12.93100841  1.69128032  6.37442647
  17.71401287  5.39073097  7.63066206
   8.17547068  5.39700496  7.61761859
  15.86383140  3.50623750  9.85736455
   6.33279821  3.49211610  9.86789169
  19.53818412  0.90844467  8.05269042
  10.01002218  0.89576004  8.04377937
  17.71152460  8.00826090  9.43175309
   8.17361049  7.99960275  9.42195572
   3.39238771  4.79494878  8.52512241
  12.93149016  4.78567032  8.50741601
  19.54287889  3.50323485  9.85761808
  10.01488138  3.49509099  9.84725355
  15.85833668  0.91753044  8.05002187
   6.31811774  0.89215324  8.08038327
  22.46137019  7.39485121 10.30408576
  12.93009501  7.38866783 10.29697249
  12.94938334  2.69894723 11.54383401
   3.41118098  2.70346924 11.55186667
  11.10192248  0.79468939 13.79244570
   1.56561999  0.79312036 13.78591327
  19.55021554  6.59101125 11.98872882
  10.01391305  6.58944222 11.98219639
  12.94297063  5.30073679 13.33719870
   3.41481803  5.29914421 13.34661039
  17.70103179  2.08497901 12.42803169
   8.17287920  2.08338642 12.43744339
  14.78408255  0.79984464 13.78145791
   5.25295916  0.79650854 13.77939111
  15.86289067  6.58761467 11.99525097
   6.33176728  6.58427857 11.99318417
  17.70464977  4.68065398 14.22277542
   8.16644742  4.68517598 14.23080807
  12.95247482  8.38687638 15.47766960
  22.48807964  8.38069301 15.47055633
  11.10580858  6.48836317 17.73086272
  20.64452664  6.47567855 17.72195166
  14.78305162  3.89200711 15.90675040
   5.25201843  3.87788572 15.91727753
   8.18434060  2.59845290 17.26722608
  17.72344305  2.58917444 17.24951968
  17.70894504  7.77594986 16.35268637
   8.17103093  7.76729171 16.34288900
  14.79771779  6.49197836 17.69425881
   5.25749884  6.46660116 17.72462021
  11.10094938  3.88903223 15.92738854
  20.63983187  3.88088837 15.91702400
  12.94036485  1.98712665 18.15702350
   3.40182265  1.99340064 18.14398003
   8.18482235  5.69284290 19.40021562
  17.74617557  5.68614724 19.39178724
   6.37114509  3.78033677 21.69245850
  15.90663446  3.74805069 21.59390807
  10.02821778  1.19918811 19.84126122
  19.55816535  1.16819278 19.82859164
   8.14445025  8.36265949 21.13991915
  17.74688846  8.28587084 21.16974126
  12.97271666  5.09633047 20.28003252
   3.41306621  5.05480347 20.31936089
   9.98535652  3.81839066 21.61644132
  19.53928273  3.80259870 21.63826857
   6.33663623  1.18583738 19.86644820
  15.92157344  1.15306862 19.80817142
  12.97041017  7.67125047 22.11728161
  22.45561200  7.66164066 22.12120431
   3.29377377  2.94617903 23.22780769
  12.85276012  2.86055176 23.08655723
   1.43833750  1.14830157 25.64335930
  10.85614149  0.86454994 25.49382315
   9.96639712  7.24483200 23.65378079
  19.54899401  6.85176744 23.80501925
   3.45022389  5.62808683 25.16113690
  12.57798444  5.50276603 25.17861786
   8.24053842  2.52731898 24.49239585
  17.64039367  2.38711053 24.33589840
   5.28035598  1.30334966 25.57062024
  14.68000909  1.19814987 25.46588607
   6.41782717  6.91434673 23.79336139
  15.88390563  6.77063512 23.72806481



--------------------------------------------------------------------------------------------------------


 k-point   1 :   0.0000 0.0000 0.0000  plane waves:  219611
 k-point   2 :   0.0000 0.3333 0.0000  plane waves:  219809

 maximum and minimum number of plane-waves per node :     13798    13665

 maximum number of plane-waves:    219809
 maximum index in each direction: 
   IXMAX=   35   IYMAX=   17   IZMAX=   94
   IXMIN=  -35   IYMIN=  -18   IZMIN=  -94


 real space projection operators:
  total allocation   :     141667.88 KBytes
  max/ min on nodes  :       9011.10       8668.91


 parallel 3D FFT for wavefunctions:
    minimum data exchange during FFTs selected (reduces bandwidth)
 parallel 3D FFT for charge:
    minimum data exchange during FFTs selected (reduces bandwidth)


 total amount of memory used by VASP MPI-rank0   158007. kBytes
=======================================================================

   base      :      30000. kBytes
   nonlr-proj:      35736. kBytes
   fftplans  :      30893. kBytes
   grid      :      32108. kBytes
   one-center:        217. kBytes
   wavefun   :      29053. kBytes

     INWAV:  cpu time      0.0001: real time      0.0001
 Broyden mixing: mesh for mixing (old mesh)
   NGX = 71   NGY = 35   NGZ =189
  (NGX  =288   NGY  =144   NGZ  =768)
  gives a total of 469665 points

 initial charge density was supplied:
 charge density of overlapping atoms calculated
 number of electron    1728.0000000 magnetization 
 keeping initial charge density in first step


--------------------------------------------------------------------------------------------------------


 Maximum index for non-local projection operator          469
 Maximum index for augmentation-charges         3420 (set IRDMAX)


--------------------------------------------------------------------------------------------------------


 First call to EWALD:  gamma=   0.088
 Maximum number of real-space cells 3x 6x 1
 Maximum number of reciprocal cells 3x 2x 6

    FEWALD:  cpu time      0.0067: real time      0.0067


--------------------------------------- Iteration      1(   1)  ---------------------------------------


    POTLOK:  cpu time      2.7595: real time      2.7854
    SETDIJ:  cpu time      0.8509: real time      0.8575
     EDDAV:  cpu time     68.4298: real time     69.2372
       DOS:  cpu time      0.0079: real time      0.0079
    --------------------------------------------
      LOOP:  cpu time     72.0481: real time     72.8880

 eigenvalue-minimisations  :  4160
 total energy-change (2. order) : 0.7391679E+04  (-0.7428500E+05)
 number of electron    1728.0000000 magnetization 
 augmentation part     1728.0000000 magnetization 

 Free energy of the ion-electron system (eV)
  ---------------------------------------------------
  alpha Z        PSCENC =      2819.91959579
  Ewald energy   TEWEN  =   1578486.55078619
  -Hartree energ DENC   =  -1696063.02208800
  -exchange      EXHF   =         0.00000000
  -V(xc)+E(xc)   XCENC  =     -1344.47139006
  PAW double counting   =    107482.30211035  -105550.49502276
  entropy T*S    EENTRO =        -0.09479339
  eigenvalues    EBANDS =      6338.34599764
  atomic energy  EATOM  =    115222.64368115
  Solvation  Ediel_sol  =         0.00000000
  ---------------------------------------------------
  free energy    TOTEN  =      7391.67887690 eV

  energy without entropy =     7391.77367029  energy(sigma->0) =     7391.72627360


--------------------------------------------------------------------------------------------------------




--------------------------------------- Iteration      1(   2)  ---------------------------------------


     EDDAV:  cpu time     75.4413: real time     76.3426
       DOS:  cpu time      0.0031: real time      0.0032
    --------------------------------------------
      LOOP:  cpu time     75.4445: real time     76.3458

 eigenvalue-minimisations  :  4896
 total energy-change (2. order) :-0.1245448E+05  (-0.1172514E+05)
 number of electron    1728.0000000 magnetization 
 augmentation part     1728.0000000 magnetization 

 Free energy of the ion-electron system (eV)
  ---------------------------------------------------
  alpha Z        PSCENC =      2819.91959579
[...]
     14.69800      0.46978      1.98128        -0.019217     -0.001414     -0.001999
      6.43584      6.18597      0.30876         0.011799      0.019024      0.012051
     15.83549      6.08077      0.20402        -0.008174     -0.011790     -0.003015
      8.26307      4.52357      2.68808         0.012115      0.003946      0.013286
     17.82206      4.43794      2.54683        -0.006064     -0.014850     -0.027445
     22.49384      8.11391      3.65344        -0.006541     -0.004269     -0.001668
     12.91216      8.10430      3.65736        -0.002039     -0.001077     -0.006945
     20.62455      6.21593      5.94610        -0.003128     -0.003749     -0.003471
     11.08761      6.18494      5.93343         0.001059     -0.003075      0.002915
      5.20922      3.63607      4.18073         0.002919      0.003022     -0.002158
     14.74470      3.60379      4.08218         0.011326      0.002196      0.010886
     17.70276      2.32932      5.45528         0.001736     -0.001990     -0.010681
      8.14311      2.28779      5.49461        -0.006178      0.001089     -0.002298
      8.13566      7.48967      4.60490         0.003602     -0.001569     -0.001194
     17.73810      7.41288      4.63472         0.000636      0.012272     -0.003880
      5.19426      6.23105      5.96647         0.003571      0.007361      0.009883
     14.77919      6.19829      5.90819         0.010303      0.000963     -0.001260
     20.64343      3.58152      4.13637         0.010874      0.003376      0.001182
     11.13047      3.56573      4.15820         0.011313     -0.003721      0.008586
      3.36966      1.69798      6.38285        -0.001787      0.001665      0.012171
     12.93101      1.69128      6.37443         0.003123     -0.014620      0.004385
     17.71401      5.39073      7.63066        -0.003315     -0.009814      0.004397
      8.17547      5.39700      7.61762        -0.003008     -0.001279     -0.002345
     15.86383      3.50624      9.85736        -0.004045     -0.000764      0.010731
      6.33280      3.49212      9.86789        -0.001532      0.002149      0.001646
     19.53818      0.90844      8.05269         0.000896      0.008001      0.003477
     10.01002      0.89576      8.04378        -0.008780      0.000134     -0.006316
     17.71152      8.00826      9.43175        -0.005935      0.000552     -0.004634
      8.17361      7.99960      9.42196         0.001353      0.000278     -0.003396
      3.39239      4.79495      8.52512        -0.004572      0.000089      0.002891
     12.93149      4.78567      8.50742        -0.003114     -0.001088      0.003528
     19.54288      3.50323      9.85762        -0.001138      0.008996      0.006437
     10.01488      3.49509      9.84725        -0.002792     -0.000210      0.004023
     15.85834      0.91753      8.05002         0.005288      0.000521      0.006026
      6.31812      0.89215      8.08038         0.004909      0.000537     -0.001956
     22.46137      7.39485     10.30409         0.001243      0.004019     -0.000206
     12.93010      7.38867     10.29697        -0.001715      0.000390      0.003296
     12.94938      2.69895     11.54383        -0.003886      0.001056      0.004385
      3.41118      2.70347     11.55187         0.001170      0.000919     -0.005703
     11.10192      0.79469     13.79245        -0.003062     -0.000362      0.003412
      1.56562      0.79312     13.78591         0.005543     -0.007186      0.002327
     19.55022      6.59101     11.98873        -0.005543      0.007186     -0.002327
     10.01391      6.58944     11.98220         0.003062      0.000362     -0.003412
     12.94297      5.30074     13.33720         0.005693      0.002557     -0.000747
      3.41482      5.29914     13.34661         0.000874     -0.002446     -0.003427
     17.70103      2.08498     12.42803        -0.000874      0.002446      0.003427
      8.17288      2.08339     12.43744        -0.005693     -0.002557      0.000747
     14.78408      0.79984     13.78146         0.001004      0.000667      0.003563
      5.25296      0.79651     13.77939         0.001599     -0.004208     -0.004974
     15.86289      6.58761     11.99525        -0.001599      0.004208      0.004974
      6.33177      6.58428     11.99318        -0.001004     -0.000667     -0.003563
     17.70465      4.68065     14.22278        -0.001170     -0.000919      0.005703
      8.16645      4.68518     14.23081         0.003886     -0.001056     -0.004385
     12.95247      8.38688     15.47767         0.001715     -0.000390     -0.003296
     22.48808      8.38069     15.47056        -0.001243     -0.004019      0.000206
     11.10581      6.48836     17.73086         0.008780     -0.000134      0.006316
     20.64453      6.47568     17.72195        -0.000896     -0.008001     -0.003477
     14.78305      3.89201     15.90675         0.001532     -0.002149     -0.001646
      5.25202      3.87789     15.91728         0.004045      0.000764     -0.010731
      8.18434      2.59845     17.26723         0.003114      0.001088     -0.003528
     17.72344      2.58917     17.24952         0.004572     -0.000089     -0.002891
     17.70895      7.77595     16.35269        -0.001353     -0.000278      0.003396
      8.17103      7.76729     16.34289         0.005935     -0.000552      0.004634
     14.79772      6.49198     17.69426        -0.004909     -0.000537      0.001956
      5.25750      6.46660     17.72462        -0.005288     -0.000521     -0.006026
     11.10095      3.88903     15.92739         0.002792      0.000210     -0.004023
     20.63983      3.88089     15.91702         0.001138     -0.008996     -0.006437
     12.94036      1.98713     18.15702         0.003008      0.001279      0.002345
      3.40182      1.99340     18.14398         0.003315      0.009814     -0.004397
      8.18482      5.69284     19.40022        -0.003123      0.014620     -0.004385
     17.74618      5.68615     19.39179         0.001787     -0.001665     -0.012171
      6.37115      3.78034     21.69246        -0.011326     -0.002196     -0.010886
     15.90663      3.74805     21.59391        -0.002919     -0.003022      0.002158
     10.02822      1.19919     19.84126        -0.001059      0.003075     -0.002915
     19.55817      1.16819     19.82859         0.003128      0.003749      0.003471
      8.14445      8.36266     21.13992        -0.000636     -0.012272      0.003880
     17.74689      8.28587     21.16974        -0.003602      0.001569      0.001194
     12.97272      5.09633     20.28003         0.006178     -0.001089      0.002298
      3.41307      5.05480     20.31936        -0.001736      0.001990      0.010681
      9.98536      3.81839     21.61644        -0.011313      0.003721     -0.008586
     19.53928      3.80260     21.63827        -0.010874     -0.003376     -0.001182
      6.33664      1.18584     19.86645        -0.010303     -0.000963      0.001260
     15.92157      1.15307     19.80817        -0.003571     -0.007361     -0.009883
     12.97041      7.67125     22.11728         0.002039      0.001077      0.006945
     22.45561      7.66164     22.12120         0.006541      0.004269      0.001668
      3.29377      2.94618     23.22781         0.006064      0.014850      0.027445
     12.85276      2.86055     23.08656        -0.012115     -0.003946     -0.013286
      1.43834      1.14830     25.64336         0.021121      0.007644      0.003964
     10.85614      0.86455     25.49382        -0.016347     -0.008678     -0.019661
      9.96640      7.24483     23.65378         0.005717     -0.003748     -0.009787
     19.54899      6.85177     23.80502        -0.001714     -0.001349     -0.011231
      3.45022      5.62809     25.16114         0.011164      0.009696      0.001249
     12.57798      5.50277     25.17862        -0.007342     -0.008073      0.023477
      8.24054      2.52732     24.49240        -0.017184     -0.005530     -0.009588
     17.64039      2.38711     24.33590        -0.011262      0.007312      0.005008
      5.28036      1.30335     25.57062         0.008174      0.011790      0.003015
     14.68001      1.19815     25.46589        -0.011799     -0.019024     -0.012051
      6.41783      6.91435     23.79336         0.019217      0.001414      0.001999
     15.88391      6.77064     23.72806        -0.016180     -0.010568      0.009015
 -----------------------------------------------------------------------------------
    total drift:                               -0.221001     -0.126171      2.090952


--------------------------------------------------------------------------------------------------------



  FREE ENERGIE OF THE ION-ELECTRON SYSTEM (eV)
  ---------------------------------------------------
  free  energy   TOTEN  =     -5744.92147875 eV

  energy  without entropy=    -5744.88989398  energy(sigma->0) =    -5744.90568637



--------------------------------------------------------------------------------------------------------


    POTLOK:  cpu time      3.5824: real time      3.6122


--------------------------------------------------------------------------------------------------------




--------------------------------------------------------------------------------------------------------


  
 reached required accuracy - stopping structural energy minimisation
     LOOP+:  cpu time   3078.1105: real time   3119.5419
    4ORBIT:  cpu time      0.0000: real time      0.0000



 total charge

# of ion       s       p       d       tot
------------------------------------------
    1        0.503   0.391   8.589   9.483
    2        0.513   0.413   8.560   9.486
    3        0.494   0.389   8.576   9.459
    4        0.477   0.383   8.557   9.418
    5        0.516   0.483   8.486   9.485
    6        0.513   0.475   8.504   9.492
    7        0.490   0.375   8.567   9.432
    8        0.512   0.397   8.588   9.498
    9        0.443   0.399   8.611   9.453
   10        0.521   0.474   8.515   9.510
   11        0.518   0.507   8.507   9.532
   12        0.544   0.491   8.531   9.566
   13        0.547   0.491   8.528   9.566
   14        0.545   0.516   8.547   9.608
   15        0.518   0.506   8.554   9.579
   16        0.526   0.479   8.525   9.530
   17        0.512   0.475   8.544   9.531
   18        0.524   0.478   8.531   9.532
   19        0.520   0.469   8.532   9.521
   20        0.517   0.471   8.526   9.513
   21        0.511   0.460   8.529   9.501
   22        0.534   0.511   8.538   9.582
   23        0.529   0.484   8.533   9.546
   24        0.513   0.471   8.521   9.504
   25        0.516   0.474   8.513   9.502
   26        0.510   0.461   8.524   9.495
   27        0.514   0.469   8.529   9.512
   28        0.566   0.534   8.564   9.664
   29        0.563   0.526   8.560   9.648
   30        0.561   0.521   8.559   9.642
   31        0.562   0.520   8.557   9.639
   32        0.522   0.473   8.530   9.525
   33        0.522   0.474   8.528   9.524
   34        0.523   0.477   8.530   9.530
   35        0.522   0.475   8.527   9.524
   36        0.523   0.477   8.527   9.527
   37        0.523   0.477   8.527   9.527
   38        0.523   0.478   8.530   9.531
   39        0.521   0.475   8.526   9.523
   40        0.513   0.471   8.523   9.507
   41        0.513   0.469   8.523   9.505
   42        0.514   0.471   8.521   9.506
   43        0.514   0.471   8.520   9.505
   44        0.561   0.521   8.554   9.636
   45        0.559   0.518   8.552   9.629
   46        0.560   0.516   8.555   9.631
   47        0.561   0.519   8.556   9.636
   48        0.523   0.476   8.529   9.528
   49        0.523   0.476   8.528   9.528
   50        0.523   0.476   8.528   9.528
   51        0.523   0.476   8.529   9.528
   52        0.521   0.475   8.527   9.523
   53        0.523   0.478   8.528   9.529
   54        0.523   0.478   8.528   9.529
   55        0.521   0.475   8.527   9.523
   56        0.514   0.471   8.522   9.507
   57        0.516   0.474   8.523   9.513
   58        0.514   0.471   8.522   9.507
   59        0.516   0.474   8.523   9.513
   60        0.559   0.519   8.553   9.631
   61        0.559   0.519   8.553   9.631
   62        0.560   0.516   8.555   9.631
   63        0.561   0.519   8.556   9.636
   64        0.522   0.475   8.527   9.524
   65        0.523   0.477   8.530   9.530
   66        0.522   0.474   8.528   9.524
   67        0.522   0.473   8.530   9.525
   68        0.521   0.475   8.526   9.523
   69        0.523   0.478   8.530   9.531
   70        0.523   0.477   8.527   9.527
   71        0.523   0.477   8.527   9.527
   72        0.514   0.471   8.521   9.506
   73        0.514   0.471   8.520   9.505
   74        0.513   0.471   8.523   9.507
   75        0.513   0.469   8.523   9.505
   76        0.559   0.518   8.552   9.629
   77        0.561   0.521   8.554   9.636
   78        0.561   0.521   8.559   9.642
   79        0.562   0.520   8.557   9.639
   80        0.520   0.469   8.532   9.521
   81        0.524   0.478   8.531   9.532
   82        0.512   0.475   8.544   9.531
   83        0.526   0.479   8.525   9.530
   84        0.529   0.484   8.533   9.546
   85        0.534   0.511   8.538   9.582
   86        0.511   0.460   8.529   9.501
   87        0.517   0.471   8.526   9.513
   88        0.510   0.461   8.524   9.495
   89        0.514   0.469   8.529   9.512
   90        0.513   0.471   8.521   9.504
   91        0.516   0.474   8.513   9.502
   92        0.563   0.526   8.560   9.648
   93        0.566   0.534   8.564   9.664
   94        0.545   0.516   8.547   9.608
   95        0.518   0.506   8.554   9.579
   96        0.477   0.383   8.557   9.418
   97        0.494   0.389   8.576   9.459
   98        0.513   0.413   8.560   9.486
   99        0.503   0.391   8.589   9.483
  100        0.512   0.397   8.588   9.498
  101        0.490   0.375   8.567   9.432
  102        0.513   0.475   8.504   9.492
  103        0.516   0.483   8.486   9.485
  104        0.521   0.474   8.515   9.510
  105        0.518   0.507   8.507   9.532
  106        0.443   0.399   8.611   9.453
  107        0.547   0.491   8.528   9.566
  108        0.544   0.491   8.531   9.566
  109        1.481   2.276   0.060   3.817
  110        1.467   2.302   0.112   3.881
  111        1.477   2.282   0.058   3.817
  112        1.471   2.309   0.053   3.833
  113        1.471   2.289   0.062   3.821
  114        1.475   2.279   0.065   3.820
  115        1.464   2.304   0.060   3.828
  116        1.471   2.322   0.061   3.854
  117        1.464   2.288   0.092   3.845
  118        1.462   2.295   0.094   3.851
  119        1.472   2.292   0.063   3.827
  120        1.475   2.291   0.060   3.825
  121        1.474   2.282   0.103   3.859
  122        1.470   2.285   0.097   3.852
  123        1.465   2.312   0.078   3.855
  124        1.470   2.299   0.077   3.846
  125        1.461   2.327   0.084   3.873
  126        1.462   2.320   0.081   3.862
  127        1.467   2.300   0.093   3.860
  128        1.471   2.288   0.086   3.845
  129        1.461   2.323   0.082   3.867
  130        1.462   2.317   0.084   3.864
  131        1.462   2.325   0.088   3.876
  132        1.464   2.316   0.089   3.869
  133        1.461   2.330   0.084   3.876
  134        1.460   2.328   0.082   3.870
  135        1.463   2.325   0.081   3.869
  136        1.467   2.304   0.090   3.861
  137        1.462   2.328   0.082   3.872
  138        1.463   2.323   0.081   3.867
  139        1.462   2.324   0.083   3.868
  140        1.462   2.321   0.082   3.865
  141        1.461   2.324   0.084   3.869
  142        1.461   2.324   0.083   3.868
  143        1.462   2.324   0.082   3.867
  144        1.462   2.323   0.081   3.866
  145        1.461   2.325   0.083   3.869
  146        1.462   2.324   0.082   3.868
  147        1.462   2.322   0.083   3.867
  148        1.461   2.324   0.082   3.867
  149        1.461   2.326   0.084   3.871
  150        1.461   2.323   0.083   3.867
  151        1.462   2.320   0.082   3.864
  152        1.462   2.321   0.083   3.867
  153        1.461   2.324   0.083   3.869
  154        1.461   2.323   0.083   3.867
  155        1.461   2.325   0.083   3.869
  156        1.461   2.325   0.083   3.869
  157        1.461   2.324   0.083   3.868
  158        1.461   2.326   0.083   3.870
  159        1.461   2.326   0.083   3.870
  160        1.461   2.324   0.083   3.868
  161        1.461   2.324   0.082   3.867
  162        1.461   2.326   0.083   3.870
  163        1.461   2.326   0.083   3.870
  164        1.461   2.324   0.082   3.867
  165        1.461   2.324   0.082   3.868
  166        1.461   2.324   0.083   3.868
  167        1.461   2.324   0.083   3.868
  168        1.461   2.324   0.082   3.868
  169        1.461   2.325   0.083   3.869
  170        1.461   2.325   0.083   3.869
  171        1.461   2.323   0.083   3.867
  172        1.461   2.324   0.083   3.869
  173        1.462   2.323   0.081   3.866
  174        1.462   2.324   0.082   3.867
  175        1.461   2.324   0.083   3.868
  176        1.461   2.324   0.084   3.869
  177        1.461   2.324   0.082   3.867
  178        1.462   2.322   0.083   3.867
  179        1.462   2.324   0.082   3.868
  180        1.461   2.325   0.083   3.869
  181        1.462   2.321   0.083   3.867
  182        1.462   2.320   0.082   3.864
  183        1.461   2.323   0.083   3.867
  184        1.461   2.326   0.084   3.871
  185        1.462   2.321   0.082   3.865
  186        1.462   2.324   0.083   3.868
  187        1.463   2.323   0.081   3.867
  188        1.462   2.328   0.082   3.872
  189        1.471   2.288   0.086   3.845
  190        1.467   2.300   0.093   3.860
  191        1.462   2.320   0.081   3.862
  192        1.461   2.327   0.084   3.873
  193        1.464   2.316   0.089   3.869
  194        1.462   2.325   0.088   3.876
  195        1.462   2.317   0.084   3.864
  196        1.461   2.323   0.082   3.867
  197        1.467   2.304   0.090   3.861
  198        1.463   2.325   0.081   3.869
  199        1.460   2.328   0.082   3.870
  200        1.461   2.330   0.084   3.876
  201        1.470   2.299   0.077   3.846
  202        1.465   2.312   0.078   3.855
  203        1.470   2.285   0.097   3.852
  204        1.474   2.282   0.103   3.859
  205        1.471   2.309   0.053   3.833
  206        1.477   2.282   0.058   3.817
  207        1.467   2.302   0.112   3.881
  208        1.481   2.276   0.060   3.817
  209        1.471   2.322   0.061   3.854
  210        1.464   2.304   0.060   3.828
  211        1.475   2.279   0.065   3.820
  212        1.471   2.289   0.062   3.821
  213        1.475   2.291   0.060   3.825
  214        1.472   2.292   0.063   3.827
  215        1.462   2.295   0.094   3.851
  216        1.464   2.288   0.092   3.845
--------------------------------------------------
tot        214.755 301.111 930.8221446.687


 total amount of memory used by VASP MPI-rank0   158007. kBytes
=======================================================================

   base      :      30000. kBytes
   nonlr-proj:      35736. kBytes
   fftplans  :      30893. kBytes
   grid      :      32108. kBytes
   one-center:        217. kBytes
   wavefun   :      29053. kBytes

  
  
 General timing and accounting informations for this job:
 ========================================================
  
                  Total CPU time used (sec):     3196.083
                            User time (sec):     2978.362
                          System time (sec):      217.721
                         Elapsed time (sec):     3241.660
  
                   Maximum memory used (kb):     1290052.
                   Average memory used (kb):          N/A
  
                          Minor page faults:       150607
                          Major page faults:            0
                 Voluntary context switches:         6978
