 vasp.6.3.2 27Jun22 (build Mar 10 2023 17:27:07) gamma-only                      
 executed on        HPECrayEX_GCC date 2023.03.10  17:32:17
 running  128 mpi-ranks, with    1 threads/rank
 distrk:  each k-point on  128 cores,    1 groups
 distr:  one band on NCORE=   4 cores,   32 groups


--------------------------------------------------------------------------------------------------------


 INCAR:
   ADDGRID = False
   ALGO = Normal
   EDIFF = 1e-05
   EDIFFG = -0.01
   ENCUT = 520
   IBRION = 2
   ICHARG = 2
   ISIF = 3
   ISMEAR = 0
   ISPIN = 1
   ISYM = 0
   LASPH = False
   LMAXMIX = 6
   LORBIT = 11
   LPLANE = True
   LREAL = Auto
   LWAVE = False
   MAGMOM = 576*0.6
   NCORE = 4
   NELM = 100
   NELMIN = 6
   NSIM = 4
   NSW = 0
   PREC = Normal
   SIGMA = 0.05
   HFSCREEN = 0.2
   LCHARG = FALSE
   PRECFOCK = Normal
   LHFCALC = True

 POTCAR:    PAW_PBE Li_sv 10Sep2004               
 POTCAR:    PAW_PBE La 06Sep2000                  
 POTCAR:    PAW_PBE Zr_sv 04Jan2005               
 POTCAR:    PAW_PBE O 08Apr2002                   
 POTCAR:    PAW_PBE Li_sv 10Sep2004               
   VRHFIN =Li: 1s2s2p                                                                               
   LEXCH  = PE                                                                                      
   EATOM  =   202.7858 eV,   14.9043 Ry                                                             
                                                                                                    
   TITEL  = PAW_PBE Li_sv 10Sep2004                                                                 
   LULTRA =        F    use ultrasoft PP ?                                                          
   IUNSCR =        0    unscreen: 0-lin 1-nonlin 2-no                                               
   RPACOR =    0.000    partial core radius                                                         
   POMASS =    7.010; ZVAL   =    3.000    mass and valenz                                          
   RCORE  =    1.700    outmost cutoff radius                                                       
   RWIGS  =    2.050; RWIGS  =    1.085    wigner-seitz radius (au A)                               
   ENMAX  =  499.034; ENMIN  =  374.276 eV                                                          
   ICORE  =        2    local potential                                                             
   LCOR   =        T    correct aug charges                                                         
   LPAW   =        T    paw PP                                                                      
   EAUG   =  628.945                                                                                
   RMAX   =    1.732    core radius for proj-oper                                                   
   RAUG   =    1.300    factor for augmentation sphere                                              
   RDEP   =    1.728    radius for radial grids                                                     
   RDEPT  =    1.329    core radius for aug-charge                                                  
                                                                                                    
   Atomic configuration                                                                             
    4 entries                                                                                       
     n  l   j            E        occ.                                                              
     1  0  0.50       -51.8549   2.0000                                                             
     2  0  0.50        -2.8742   1.0000                                                             
     2  1  0.50        -1.3606   0.0000                                                             
     3  2  1.50        -1.3606   0.0000                                                             
   Description                                                                                      
     l       E           TYP  RCUT    TYP  RCUT                                                     
     0    -51.8548813     23  1.400                                                                 
     0     -2.8742052     23  1.700                                                                 
     1     -1.3605826     23  1.400                                                                 
     2     -1.3605826     23  1.400                                                                 
  local pseudopotential read in
  atomic valenz-charges read in
  non local Contribution for L=           0  read in
    real space projection operators read in
  non local Contribution for L=           0  read in
    real space projection operators read in
  non local Contribution for L=           1  read in
    real space projection operators read in
    PAW grid and wavefunctions read in

   number of l-projection  operators is LMAX  =           3
   number of lm-projection operators is LMMAX =           5

 POTCAR:    PAW_PBE La 06Sep2000                  
   VRHFIN =La : [core=Kr4d]                                                                         
   LEXCH  = PE                                                                                      
   EATOM  =   865.9763 eV,   63.6475 Ry                                                             
                                                                                                    
   TITEL  = PAW_PBE La 06Sep2000                                                                    
   LULTRA =        F    use ultrasoft PP ?                                                          
   IUNSCR =        1    unscreen: 0-lin 1-nonlin 2-no                                               
   RPACOR =    2.300    partial core radius                                                         
   POMASS =  138.900; ZVAL   =   11.000    mass and valenz                                          
   RCORE  =    2.800    outmost cutoff radius                                                       
   RWIGS  =    2.900; RWIGS  =    1.535    wigner-seitz radius (au A)                               
   ENMAX  =  219.292; ENMIN  =  164.469 eV                                                          
   RCLOC  =    1.601    cutoff for local pot                                                        
   LCOR   =        T    correct aug charges                                                         
   LPAW   =        T    paw PP                                                                      
   EAUG   =  583.575                                                                                
   DEXC   =    0.000                                                                                
   RMAX   =    2.853    core radius for proj-oper                                                   
   RAUG   =    1.300    factor for augmentation sphere                                              
   RDEP   =    2.802    radius for radial grids                                                     
   RDEPT  =    2.156    core radius for aug-charge                                                  
                                                                                                    
   Atomic configuration                                                                             
   14 entries                                                                                       
     n  l   j            E        occ.                                                              
     1  0  0.50    -38741.0879   2.0000                                                             
     2  0  0.50     -6166.6801   2.0000                                                             
     2  1  1.50     -5526.1593   6.0000                                                             
     3  0  0.50     -1319.0200   2.0000                                                             
     3  1  1.50     -1114.5963   6.0000                                                             
     3  2  2.50      -821.1793  10.0000                                                             
     4  0  0.50      -266.3851   2.0000                                                             
     4  1  1.50      -199.9276   6.0000                                                             
     4  2  2.50      -103.8239  10.0000                                                             
     5  0  0.50       -38.9172   2.0000                                                             
     6  0  0.50        -3.6792   2.0000                                                             
     5  1  1.50       -22.3948   6.0000                                                             
     5  2  2.50        -3.0911   0.9999                                                             
     4  3  2.50        -4.3603   0.0001                                                             
   Description                                                                                      
     l       E           TYP  RCUT    TYP  RCUT                                                     
     0    -38.9171645     23  2.800                                                                 
     0     -3.6792381     23  2.800                                                                 
     1    -22.3948300     23  2.500                                                                 
     1     27.2116520     23  2.500                                                                 
     2     -3.0910934     23  2.500                                                                 
     2      1.0119135     23  2.500                                                                 
     3     -4.3602911     23  2.800                                                                 
     3     -5.7208737     23  2.800                                                                 
  local pseudopotential read in
  partial core-charges read in
  partial kinetic energy density read in
  atomic valenz-charges read in
  non local Contribution for L=           0  read in
    real space projection operators read in
  non local Contribution for L=           0  read in
    real space projection operators read in
  non local Contribution for L=           1  read in
    real space projection operators read in
  non local Contribution for L=           1  read in
    real space projection operators read in
  non local Contribution for L=           2  read in
    real space projection operators read in
  non local Contribution for L=           2  read in
    real space projection operators read in
  non local Contribution for L=           3  read in
    real space projection operators read in
  non local Contribution for L=           3  read in
    real space projection operators read in
    PAW grid and wavefunctions read in

   number of l-projection  operators is LMAX  =           8
   number of lm-projection operators is LMMAX =          32

 POTCAR:    PAW_PBE Zr_sv 04Jan2005               
   VRHFIN =Zr: 4s4p5s4d                                                                             
   LEXCH  = PE                                                                                      
   EATOM  =  1284.2219 eV,   94.3876 Ry                                                             
                                                                                                    
   TITEL  = PAW_PBE Zr_sv 04Jan2005                                                                 
   LULTRA =        F    use ultrasoft PP ?                                                          
   IUNSCR =        1    unscreen: 0-lin 1-nonlin 2-no                                               
   RPACOR =    2.200    partial core radius                                                         
   POMASS =   91.224; ZVAL   =   12.000    mass and valenz                                          
   RCORE  =    2.500    outmost cutoff radius                                                       
   RWIGS  =    3.070; RWIGS  =    1.625    wigner-seitz radius (au A)                               
   ENMAX  =  229.898; ENMIN  =  172.424 eV                                                          
   ICORE  =        3    local potential                                                             
   LCOR   =        T    correct aug charges                                                         
   LPAW   =        T    paw PP                                                                      
   EAUG   =  461.257                                                                                
   DEXC   =    0.000                                                                                
   RMAX   =    2.561    core radius for proj-oper                                                   
   RAUG   =    1.300    factor for augmentation sphere                                              
   RDEP   =    2.597    radius for radial grids                                                     
   RDEPT  =    2.007    core radius for aug-charge                                                  
                                                                                                    
   Atomic configuration                                                                             
   11 entries                                                                                       
     n  l   j            E        occ.                                                              
     1  0  0.50    -17820.0161   2.0000                                                             
     2  0  0.50     -2467.0882   2.0000                                                             
     2  1  1.50     -2199.6095   6.0000                                                             
     3  0  0.50      -402.4863   2.0000                                                             
     3  1  1.50      -315.3675   6.0000                                                             
     3  2  2.50      -172.4472  10.0000                                                             
     4  0  0.50       -52.4146   2.0000                                                             
     5  0  0.50        -3.8421   1.0000                                                             
     4  1  1.50       -30.5054   6.0000                                                             
     4  2  2.50        -2.3341   3.0000                                                             
     4  3  2.50        -1.3606   0.0000                                                             
   Description                                                                                      
     l       E           TYP  RCUT    TYP  RCUT                                                     
     0    -52.4145962     23  2.200                                                                 
     0     -3.8421270     23  2.500                                                                 
     1    -30.5053914     23  2.200                                                                 
     1     20.4087390     23  2.200                                                                 
     2     -2.3340816     23  2.500                                                                 
     2     -0.6120942     23  2.500                                                                 
     3     -4.0817478     23  2.500                                                                 
  local pseudopotential read in
  partial core-charges read in
  partial kinetic energy density read in
  atomic valenz-charges read in
  non local Contribution for L=           0  read in
    real space projection operators read in
  non local Contribution for L=           0  read in
    real space projection operators read in
  non local Contribution for L=           1  read in
    real space projection operators read in
  non local Contribution for L=           1  read in
    real space projection operators read in
  non local Contribution for L=           2  read in
    real space projection operators read in
  non local Contribution for L=           2  read in
    real space projection operators read in
    PAW grid and wavefunctions read in

   number of l-projection  operators is LMAX  =           6
   number of lm-projection operators is LMMAX =          18

 POTCAR:    PAW_PBE O 08Apr2002                   
   VRHFIN =O: s2p4                                                                                  
   LEXCH  = PE                                                                                      
   EATOM  =   432.3788 eV,   31.7789 Ry                                                             
                                                                                                    
   TITEL  = PAW_PBE O 08Apr2002                                                                     
   LULTRA =        F    use ultrasoft PP ?                                                          
   IUNSCR =        1    unscreen: 0-lin 1-nonlin 2-no                                               
   RPACOR =    1.200    partial core radius                                                         
   POMASS =   16.000; ZVAL   =    6.000    mass and valenz                                          
   RCORE  =    1.520    outmost cutoff radius                                                       
   RWIGS  =    1.550; RWIGS  =    0.820    wigner-seitz radius (au A)                               
   ENMAX  =  400.000; ENMIN  =  300.000 eV                                                          
   ICORE  =        2    local potential                                                             
   LCOR   =        T    correct aug charges                                                         
   LPAW   =        T    paw PP                                                                      
   EAUG   =  605.392                                                                                
   DEXC   =    0.000                                                                                
   RMAX   =    1.553    core radius for proj-oper                                                   
   RAUG   =    1.300    factor for augmentation sphere                                              
   RDEP   =    1.550    radius for radial grids                                                     
   RDEPT  =    1.329    core radius for aug-charge                                                  
                                                                                                    
   Atomic configuration                                                                             
    4 entries                                                                                       
     n  l   j            E        occ.                                                              
     1  0  0.50      -514.6923   2.0000                                                             
     2  0  0.50       -23.9615   2.0000                                                             
     2  1  0.50        -9.0305   4.0000                                                             
     3  2  1.50        -9.5241   0.0000                                                             
   Description                                                                                      
     l       E           TYP  RCUT    TYP  RCUT                                                     
     0    -23.9615318     23  1.200                                                                 
     0     -9.5240782     23  1.200                                                                 
     1     -9.0304911     23  1.520                                                                 
     1      8.1634956     23  1.520                                                                 
     2     -9.5240782      7  1.500                                                                 
  local pseudopotential read in
  partial core-charges read in
  partial kinetic energy density read in
  kinetic energy density of atom read in
  atomic valenz-charges read in
  non local Contribution for L=           0  read in
    real space projection operators read in
  non local Contribution for L=           0  read in
    real space projection operators read in
  non local Contribution for L=           1  read in
    real space projection operators read in
  non local Contribution for L=           1  read in
    real space projection operators read in
    PAW grid and wavefunctions read in

   number of l-projection  operators is LMAX  =           4
   number of lm-projection operators is LMMAX =           8

 Optimization of the real space projectors (new method)

 maximal supplied QI-value         = 22.11
 optimisation between [QCUT,QGAM] = [ 11.50, 23.22] = [ 37.02,150.92] Ry 
 Optimized for a Real-space Cutoff    0.93 Angstroem

   l    n(q)    QCUT    max X(q) W(low)/X(q) W(high)/X(q)  e(spline) 
   0      6    11.497    10.506    0.79E-04    0.25E-03    0.29E-07
   0      6    11.497     8.367    0.15E-03    0.55E-03    0.58E-07
   1      6    11.497     8.983    0.40E-03    0.10E-02    0.51E-07
 Optimization of the real space projectors (new method)

 maximal supplied QI-value         = 13.42
 optimisation between [QCUT,QGAM] = [ 11.67, 23.35] = [ 38.16,152.62] Ry 
 Optimized for a Real-space Cutoff    1.63 Angstroem

   l    n(q)    QCUT    max X(q) W(low)/X(q) W(high)/X(q)  e(spline) 
   0     11    11.673    13.882    0.27E-04    0.79E-05    0.11E-06
   0     11    11.673    12.184    0.39E-04    0.13E-04    0.19E-06
   1     11    11.673     4.523    0.73E-05    0.76E-05    0.12E-06
   1     11    11.673     4.424    0.87E-05    0.13E-04    0.19E-06
   2     10    11.673    52.481    0.65E-04    0.36E-04    0.18E-06
   2     10    11.673    38.501    0.61E-04    0.33E-04    0.17E-06
   3     10    11.673    65.631    0.17E-03    0.14E-03    0.37E-06
   3     10    11.673    56.854    0.17E-03    0.14E-03    0.37E-06
 Optimization of the real space projectors (new method)

 maximal supplied QI-value         = 15.12
 optimisation between [QCUT,QGAM] = [ 11.64, 23.28] = [ 37.95,151.78] Ry 
 Optimized for a Real-space Cutoff    1.45 Angstroem

   l    n(q)    QCUT    max X(q) W(low)/X(q) W(high)/X(q)  e(spline) 
   0     10    11.641    12.107    0.29E-04    0.23E-04    0.44E-07
   0     10    11.641     9.948    0.47E-04    0.48E-04    0.11E-06
   1     10    11.641     3.563    0.32E-04    0.40E-04    0.41E-07
   1     10    11.641     4.524    0.39E-03    0.28E-03    0.36E-06
   2      9    11.641    87.261    0.31E-03    0.70E-04    0.22E-06
   2      9    11.641    70.950    0.31E-03    0.70E-04    0.22E-06
 Optimization of the real space projectors (new method)

 maximal supplied QI-value         = 24.76
 optimisation between [QCUT,QGAM] = [ 11.64, 23.27] = [ 37.91,151.63] Ry 
 Optimized for a Real-space Cutoff    1.04 Angstroem

   l    n(q)    QCUT    max X(q) W(low)/X(q) W(high)/X(q)  e(spline) 
   0      7    11.635    20.381    0.14E-03    0.49E-03    0.18E-06
   0      7    11.635    15.268    0.16E-03    0.52E-03    0.19E-06
   1      7    11.635     5.964    0.30E-03    0.44E-03    0.22E-06
   1      7    11.635     5.382    0.27E-03    0.34E-03    0.19E-06
  PAW_PBE Li_sv 10Sep2004               :
 energy of atom  1       EATOM= -202.7858
 kinetic energy error for atom=    0.0130 (will be added to EATOM!!)
  PAW_PBE La 06Sep2000                  :
 energy of atom  2       EATOM= -865.9763
 kinetic energy error for atom=    0.0009 (will be added to EATOM!!)
  PAW_PBE Zr_sv 04Jan2005               :
 energy of atom  3       EATOM=-1284.2219
 kinetic energy error for atom=    0.0043 (will be added to EATOM!!)
  PAW_PBE O 08Apr2002                   :
 energy of atom  4       EATOM= -432.3788
 kinetic energy error for atom=    0.0208 (will be added to EATOM!!)


 POSCAR: Li56 La24 Zr16 O96
  positions in direct lattice
  No initial velocities read in
 exchange correlation table for  LEXCH =        8
   RHO(1)=    0.500       N(1)  =     2000
   RHO(2)=  100.500       N(2)  =     4000



--------------------------------------------------------------------------------------------------------


 ion  position               nearest neighbor table
   1  0.500  0.750  0.375- 149 1.91 158 1.91 155 1.91 148 1.91  26 2.54  33 2.54  47 2.54  56 2.54

   2  0.500  0.750  0.875- 150 1.91 157 1.91 156 1.91 147 1.91  25 2.54  34 2.54  48 2.54  55 2.54

   3  0.000  0.750  0.625- 130 1.91 137 1.91 135 1.91 144 1.91  28 2.54  35 2.54  45 2.54  54 2.54

   4  0.000  0.750  0.125- 129 1.91 138 1.91 136 1.91 143 1.91  27 2.54  36 2.54  46 2.54  53 2.54

   5  0.500  0.250  0.625- 145 1.91 154 1.91 152 1.91 159 1.91  30 2.54  37 2.54  43 2.54  52 2.54

   6  0.500  0.250  0.125- 146 1.91 153 1.91 151 1.91 160 1.91  29 2.54  38 2.54  44 2.54  51 2.54

   7  0.000  0.250  0.375- 134 1.91 141 1.91 140 1.91 131 1.91  32 2.54  39 2.54  41 2.54  50 2.54

   8  0.000  0.250  0.875- 133 1.91 142 1.91 139 1.91 132 1.91  31 2.54  40 2.54  42 2.54  49 2.54

   9  0.680  0.930  0.625- 106 1.95 119 1.95  43 2.58  54 2.58  88 2.98  93 2.98  69 3.12  74 3.12

  10  0.320  0.930  0.125- 105 1.95 120 1.95  44 2.58  53 2.58  87 2.98  94 2.98  70 3.12  73 3.12

  11  0.180  0.930  0.875- 108 1.95 117 1.95  25 2.58  40 2.58  81 2.98  90 2.98  70 3.12  78 3.12

  12  0.820  0.930  0.375- 107 1.95 118 1.95  26 2.58  39 2.58  82 2.98  89 2.98  69 3.12  77 3.12

  13  0.320  0.070  0.375- 110 1.95 115 1.95  47 2.58  50 2.58  92 2.98  93 2.98  65 3.12  73 3.12

  14  0.680  0.070  0.875- 109 1.95 116 1.95  48 2.58  49 2.58  91 2.98  94 2.98  66 3.12  74 3.12

  15  0.820  0.070  0.125- 112 1.95 113 1.95  29 2.58  36 2.58  85 2.98  90 2.98  66 3.12  77 3.12

  16  0.180  0.070  0.625- 111 1.95 114 1.95  30 2.58  35 2.58  86 2.98  89 2.98  65 3.12  78 3.12

  17  0.680  0.570  0.125-  98 1.95 127 1.95  46 2.58  51 2.58  82 2.98  95 2.98  68 3.12  75 3.12

  18  0.320  0.570  0.625-  97 1.95 128 1.95  45 2.58  52 2.58  81 2.98  96 2.98  67 3.12  76 3.12

  19  0.180  0.570  0.375- 100 1.95 125 1.95  32 2.58  33 2.58  84 2.98  87 2.98  76 3.12  80 3.12

  20  0.820  0.570  0.875-  99 1.95 126 1.95  31 2.58  34 2.58  83 2.98  88 2.98  75 3.12  79 3.12

  21  0.320  0.430  0.875- 102 1.95 123 1.95  42 2.58  55 2.58  86 2.98  95 2.98  67 3.12  71 3.12

  22  0.680  0.430  0.375- 101 1.95 124 1.95  41 2.58  56 2.58  85 2.98  96 2.98  68 3.12  72 3.12

  23  0.820  0.430  0.625- 104 1.95 121 1.95  28 2.58  37 2.58  84 2.98  91 2.98  72 3.12  79 3.12

  24  0.180  0.430  0.125- 103 1.95 122 1.95  27 2.58  38 2.58  83 2.98  92 2.98  71 3.12  80 3.12

  25  0.337  0.831  0.944- 183 1.85 117 2.04 105 2.06 157 2.20   2 2.54  11 2.58  81 2.91  71 3.05
                            94 3.15
  26  0.663  0.831  0.444- 184 1.85 118 2.04 106 2.06 158 2.20   1 2.54  12 2.58  82 2.91  72 3.05
                            93 3.15
  27  0.081  0.587  0.194- 181 1.85 103 2.04 100 2.06 136 2.20   4 2.54  24 2.58  83 2.91  68 3.05
                            87 3.15
  28  0.919  0.587  0.694- 182 1.85 104 2.04  99 2.06 135 2.20   3 2.54  23 2.58  84 2.91  67 3.05
                            88 3.15
  29  0.663  0.169  0.056- 179 1.85 113 2.04 109 2.06 153 2.20   6 2.54  15 2.58  85 2.91  75 3.05
                            94 3.15
  30  0.337  0.169  0.556- 180 1.85 114 2.04 110 2.06 154 2.20   5 2.54  16 2.58  86 2.91  76 3.05
                            93 3.15
  31  0.919  0.413  0.806- 177 1.85  99 2.04 104 2.06 132 2.20   8 2.54  20 2.58  83 2.91  67 3.05
                            91 3.15
  32  0.081  0.413  0.306- 178 1.85 100 2.04 103 2.06 131 2.20   7 2.54  19 2.58  84 2.91  68 3.05
                            92 3.15
  33  0.337  0.669  0.444- 191 1.85 125 2.04  97 2.06 149 2.20   1 2.54  19 2.58  87 2.91  65 3.05
                            96 3.15
  34  0.663  0.669  0.944- 192 1.85 126 2.04  98 2.06 150 2.20   2 2.54  20 2.58  88 2.91  66 3.05
                            95 3.15
  35  0.081  0.913  0.694- 189 1.85 111 2.04 108 2.06 144 2.20   3 2.54  16 2.58  89 2.91  74 3.05
                            81 3.15
  36  0.919  0.913  0.194- 190 1.85 112 2.04 107 2.06 143 2.20   4 2.54  15 2.58  90 2.91  73 3.05
                            82 3.15
  37  0.663  0.331  0.556- 187 1.85 121 2.04 101 2.06 145 2.20   5 2.54  23 2.58  91 2.91  69 3.05
                            96 3.15
  38  0.337  0.331  0.056- 188 1.85 122 2.04 102 2.06 146 2.20   6 2.54  24 2.58  92 2.91  70 3.05
                            95 3.15
  39  0.919  0.087  0.306- 185 1.85 107 2.04 112 2.06 140 2.20   7 2.54  12 2.58  89 2.91  73 3.05
                            85 3.15
  40  0.081  0.087  0.806- 186 1.85 108 2.04 111 2.06 139 2.20   8 2.54  11 2.58  90 2.91  74 3.05
                            86 3.15
  41  0.837  0.331  0.444- 167 1.85 101 2.04 121 2.06 141 2.20   7 2.54  22 2.58  85 2.91  69 3.05
                            84 3.15
  42  0.163  0.331  0.944- 168 1.85 102 2.04 122 2.06 142 2.20   8 2.54  21 2.58  86 2.91  70 3.05
                            83 3.15
  43  0.581  0.087  0.694- 165 1.85 119 2.04 116 2.06 152 2.20   5 2.54   9 2.58  93 2.91  78 3.05
                            91 3.15
  44  0.419  0.087  0.194- 166 1.85 120 2.04 115 2.06 151 2.20   6 2.54  10 2.58  94 2.91  77 3.05
                            92 3.15
  45  0.163  0.669  0.556- 163 1.85  97 2.04 125 2.06 137 2.20   3 2.54  18 2.58  81 2.91  65 3.05
                            84 3.15
  46  0.837  0.669  0.056- 164 1.85  98 2.04 126 2.06 138 2.20   4 2.54  17 2.58  82 2.91  66 3.05
                            83 3.15
  47  0.419  0.913  0.306- 161 1.85 115 2.04 120 2.06 148 2.20   1 2.54  13 2.58  93 2.91  77 3.05
                            87 3.15
  48  0.581  0.913  0.806- 162 1.85 116 2.04 119 2.06 147 2.20   2 2.54  14 2.58  94 2.91  78 3.05
                            88 3.15
  49  0.837  0.169  0.944- 175 1.85 109 2.04 113 2.06 133 2.20   8 2.54  14 2.58  91 2.91  75 3.05
                            90 3.15
  50  0.163  0.169  0.444- 176 1.85 110 2.04 114 2.06 134 2.20   7 2.54  13 2.58  92 2.91  76 3.05
                            89 3.15
  51  0.581  0.413  0.194- 173 1.85 127 2.04 124 2.06 160 2.20   6 2.54  17 2.58  95 2.91  80 3.05
                            85 3.15
  52  0.419  0.413  0.694- 174 1.85 128 2.04 123 2.06 159 2.20   5 2.54  18 2.58  96 2.91  79 3.05
                            86 3.15
  53  0.163  0.831  0.056- 171 1.85 105 2.04 117 2.06 129 2.20   4 2.54  10 2.58  87 2.91  71 3.05
                            90 3.15
  54  0.837  0.831  0.556- 172 1.85 106 2.04 118 2.06 130 2.20   3 2.54   9 2.58  88 2.91  72 3.05
                            89 3.15
  55  0.419  0.587  0.806- 169 1.85 123 2.04 128 2.06 156 2.20   2 2.54  21 2.58  95 2.91  79 3.05
                            81 3.15
  56  0.581  0.587  0.306- 170 1.85 124 2.04 127 2.06 155 2.20   1 2.54  22 2.58  96 2.91  80 3.05
                            82 3.15
  57  0.500  0.750  0.625- 150 2.52 157 2.52 155 2.52 148 2.52  97 2.61 106 2.61 119 2.61 128 2.61
                            81 3.64  88 3.64  93 3.64  96 3.64
  58  0.500  0.750  0.125- 149 2.52 158 2.52 156 2.52 147 2.52  98 2.61 105 2.61 120 2.61 127 2.61
                            82 3.64  87 3.64  94 3.64  95 3.64
  59  0.000  0.750  0.875- 130 2.52 137 2.52 136 2.52 143 2.52  99 2.61 108 2.61 117 2.61 126 2.61
                            81 3.64  83 3.64  88 3.64  90 3.64
  60  0.000  0.750  0.375- 129 2.52 138 2.52 135 2.52 144 2.52 100 2.61 107 2.61 118 2.61 125 2.61
                            82 3.64  84 3.64  87 3.64  89 3.64
  61  0.500  0.250  0.375- 146 2.52 153 2.52 152 2.52 159 2.52 101 2.61 110 2.61 115 2.61 124 2.61
                            85 3.64  92 3.64  93 3.64  96 3.64
  62  0.500  0.250  0.875- 145 2.52 154 2.52 151 2.52 160 2.52 102 2.61 109 2.61 116 2.61 123 2.61
                            86 3.64  91 3.64  94 3.64  95 3.64
  63  0.000  0.250  0.125- 134 2.52 141 2.52 139 2.52 132 2.52 103 2.61 112 2.61 113 2.61 122 2.61
                            83 3.64  85 3.64  90 3.64  92 3.64
  64  0.000  0.250  0.625- 133 2.52 142 2.52 140 2.52 131 2.52 104 2.61 111 2.61 114 2.61 121 2.61
                            84 3.64  86 3.64  89 3.64  91 3.64
  65  0.250  0.877  0.500- 176 2.46 180 2.46 161 2.53 189 2.53  97 2.56 125 2.56 144 2.62 148 2.62
                            33 3.05  45 3.05  13 3.12  16 3.12  81 3.57  87 3.57  89 3.65  93 3.65
  66  0.750  0.877  0.000- 175 2.46 179 2.46 162 2.53 190 2.53  98 2.56 126 2.56 143 2.62 147 2.62
                            34 3.05  46 3.05  14 3.12  15 3.12  82 3.57  88 3.57  90 3.65  94 3.65
  67  0.127  0.500  0.750- 169 2.46 174 2.46 163 2.53 168 2.53  99 2.56 104 2.56 137 2.62 142 2.62
                            28 3.05  31 3.05  18 3.12  21 3.12  83 3.57  84 3.57  81 3.65  86 3.65
  68  0.873  0.500  0.250- 170 2.46 173 2.46 164 2.53 167 2.53 100 2.56 103 2.56 138 2.62 141 2.62
                            27 3.05  32 3.05  17 3.12  22 3.12  83 3.57  84 3.57  82 3.65  85 3.65
  69  0.750  0.123  0.500- 172 2.46 184 2.46 165 2.53 185 2.53 101 2.56 121 2.56 140 2.62 152 2.62
                            37 3.05  41 3.05   9 3.12  12 3.12  85 3.57  91 3.57  89 3.65  93 3.65
  70  0.250  0.123  0.000- 171 2.46 183 2.46 166 2.53 186 2.53 102 2.56 122 2.56 139 2.62 151 2.62
                            38 3.05  42 3.05  10 3.12  11 3.12  86 3.57  92 3.57  90 3.65  94 3.65
  71  0.250  0.623  0.000- 168 2.46 188 2.46 181 2.53 169 2.53 105 2.56 117 2.56 136 2.62 156 2.62
                            25 3.05  53 3.05  21 3.12  24 3.12  81 3.57  87 3.57  83 3.65  95 3.65
  72  0.750  0.623  0.500- 167 2.46 187 2.46 182 2.53 170 2.53 106 2.56 118 2.56 135 2.62 155 2.62
                            26 3.05  54 3.05  22 3.12  23 3.12  82 3.57  88 3.57  84 3.65  96 3.65
  73  0.127  0.000  0.250- 161 2.46 166 2.46 171 2.53 176 2.53 107 2.56 112 2.56 129 2.62 134 2.62
                            36 3.05  39 3.05  10 3.12  13 3.12  89 3.57  90 3.57  87 3.65  92 3.65
  74  0.873  0.000  0.750- 162 2.46 165 2.46 172 2.53 175 2.53 108 2.56 111 2.56 130 2.62 133 2.62
                            35 3.05  40 3.05   9 3.12  14 3.12  89 3.57  90 3.57  88 3.65  91 3.65
  75  0.750  0.377  0.000- 164 2.46 192 2.46 177 2.53 173 2.53 109 2.56 113 2.56 132 2.62 160 2.62
                            29 3.05  49 3.05  17 3.12  20 3.12  85 3.57  91 3.57  83 3.65  95 3.65
  76  0.250  0.377  0.500- 163 2.46 191 2.46 178 2.53 174 2.53 110 2.56 114 2.56 131 2.62 159 2.62
                            30 3.05  50 3.05  18 3.12  19 3.12  86 3.57  92 3.57  84 3.65  96 3.65
  77  0.627  0.000  0.250- 185 2.46 190 2.46 179 2.53 184 2.53 115 2.56 120 2.56 153 2.62 158 2.62
                            44 3.05  47 3.05  12 3.12  15 3.12  93 3.57  94 3.57  82 3.65  85 3.65
  78  0.373  0.000  0.750- 186 2.46 189 2.46 180 2.53 183 2.53 116 2.56 119 2.56 154 2.62 157 2.62
                            43 3.05  48 3.05  11 3.12  16 3.12  93 3.57  94 3.57  81 3.65  86 3.65
  79  0.627  0.500  0.750- 177 2.46 182 2.46 187 2.53 192 2.53 123 2.56 128 2.56 145 2.62 150 2.62
                            52 3.05  55 3.05  20 3.12  23 3.12  95 3.57  96 3.57  88 3.65  91 3.65
  80  0.373  0.500  0.250- 178 2.46 181 2.46 188 2.53 191 2.53 124 2.56 127 2.56 146 2.62 149 2.62
                            51 3.05  56 3.05  19 3.12  24 3.12  95 3.57  96 3.57  87 3.65  92 3.65
  81  0.250  0.750  0.750- 137 2.10 157 2.10 169 2.11 189 2.11  97 2.11 117 2.11  25 2.91  45 2.91
                            11 2.98  18 2.98  35 3.15  55 3.15  65 3.57  71 3.57  57 3.64  59 3.64
  82  0.750  0.750  0.250- 138 2.10 158 2.10 170 2.11 190 2.11  98 2.11 118 2.11  26 2.91  46 2.91
                            12 2.98  17 2.98  36 3.15  56 3.15  66 3.57  72 3.57  58 3.64  60 3.64
  83  0.000  0.500  0.000- 132 2.10 136 2.10 164 2.11 168 2.11  99 2.11 103 2.11  27 2.91  31 2.91
                            20 2.98  24 2.98  42 3.15  46 3.15  67 3.57  68 3.57  59 3.64  63 3.64
  84  0.000  0.500  0.500- 131 2.10 135 2.10 163 2.11 167 2.11 100 2.11 104 2.11  28 2.91  32 2.91
                            19 2.98  23 2.98  41 3.15  45 3.15  67 3.57  68 3.57  60 3.64  64 3.64
  85  0.750  0.250  0.250- 141 2.10 153 2.10 173 2.11 185 2.11 101 2.11 113 2.11  29 2.91  41 2.91
                            15 2.98  22 2.98  39 3.15  51 3.15  69 3.57  75 3.57  61 3.64  63 3.64
  86  0.250  0.250  0.750- 142 2.10 154 2.10 174 2.11 186 2.11 102 2.11 114 2.11  30 2.91  42 2.91
                            16 2.98  21 2.98  40 3.15  52 3.15  70 3.57  76 3.57  62 3.64  64 3.64
  87  0.250  0.750  0.250- 129 2.10 149 2.10 161 2.11 181 2.11 105 2.11 125 2.11  33 2.91  53 2.91
                            10 2.98  19 2.98  47 3.15  27 3.15  65 3.57  71 3.57  58 3.64  60 3.64
  88  0.750  0.750  0.750- 130 2.10 150 2.10 162 2.11 182 2.11 106 2.11 126 2.11  34 2.91  54 2.91
                             9 2.98  20 2.98  48 3.15  28 3.15  66 3.57  72 3.57  57 3.64  59 3.64
  89  0.000  0.000  0.500- 140 2.10 144 2.10 172 2.11 176 2.11 107 2.11 111 2.11  35 2.91  39 2.91
                            12 2.98  16 2.98  50 3.15  54 3.15  73 3.57  74 3.57  60 3.64  64 3.64
  90  0.000  0.000  0.000- 139 2.10 143 2.10 171 2.11 175 2.11 108 2.11 112 2.11  36 2.91  40 2.91
                            11 2.98  15 2.98  49 3.15  53 3.15  73 3.57  74 3.57  59 3.64  63 3.64
  91  0.750  0.250  0.750- 133 2.10 145 2.10 165 2.11 177 2.11 109 2.11 121 2.11  37 2.91  49 2.91
                            14 2.98  23 2.98  43 3.15  31 3.15  69 3.57  75 3.57  62 3.64  64 3.64
  92  0.250  0.250  0.250- 134 2.10 146 2.10 166 2.11 178 2.11 110 2.11 122 2.11  38 2.91  50 2.91
                            13 2.98  24 2.98  44 3.15  32 3.15  70 3.57  76 3.57  61 3.64  63 3.64
  93  0.500  0.000  0.500- 148 2.10 152 2.10 180 2.11 184 2.11 115 2.11 119 2.11  43 2.91  47 2.91
                             9 2.98  13 2.98  26 3.15  30 3.15  77 3.57  78 3.57  57 3.64  61 3.64
  94  0.500  0.000  0.000- 147 2.10 151 2.10 179 2.11 183 2.11 116 2.11 120 2.11  44 2.91  48 2.91
                            10 2.98  14 2.98  25 3.15  29 3.15  77 3.57  78 3.57  58 3.64  62 3.64
  95  0.500  0.500  0.000- 156 2.10 160 2.10 188 2.11 192 2.11 123 2.11 127 2.11  51 2.91  55 2.91
                            17 2.98  21 2.98  34 3.15  38 3.15  79 3.57  80 3.57  58 3.64  62 3.64
  96  0.500  0.500  0.500- 155 2.10 159 2.10 187 2.11 191 2.11 124 2.11 128 2.11  52 2.91  56 2.91
                            18 2.98  22 2.98  33 3.15  37 3.15  79 3.57  80 3.57  57 3.64  61 3.64
  97  0.306  0.715  0.597-  18 1.95  45 2.04  33 2.06  81 2.11  65 2.56  57 2.61
  98  0.694  0.715  0.097-  17 1.95  46 2.04  34 2.06  82 2.11  66 2.56  58 2.61
  99  0.965  0.556  0.847-  20 1.95  31 2.04  28 2.06  83 2.11  67 2.56  59 2.61
 100  0.035  0.556  0.347-  19 1.95  32 2.04  27 2.06  84 2.11  68 2.56  60 2.61
 101  0.694  0.285  0.403-  22 1.95  41 2.04  37 2.06  85 2.11  69 2.56  61 2.61
 102  0.306  0.285  0.903-  21 1.95  42 2.04  38 2.06  86 2.11  70 2.56  62 2.61
 103  0.035  0.444  0.153-  24 1.95  27 2.04  32 2.06  83 2.11  68 2.56  63 2.61
 104  0.965  0.444  0.653-  23 1.95  28 2.04  31 2.06  84 2.11  67 2.56  64 2.61
 105  0.306  0.785  0.097-  10 1.95  53 2.04  25 2.06  87 2.11  71 2.56  58 2.61
 106  0.694  0.785  0.597-   9 1.95  54 2.04  26 2.06  88 2.11  72 2.56  57 2.61
 107  0.965  0.944  0.347-  12 1.95  39 2.04  36 2.06  89 2.11  73 2.56  60 2.61
 108  0.035  0.944  0.847-  11 1.95  40 2.04  35 2.06  90 2.11  74 2.56  59 2.61
 109  0.694  0.215  0.903-  14 1.95  49 2.04  29 2.06  91 2.11  75 2.56  62 2.61
 110  0.306  0.215  0.403-  13 1.95  50 2.04  30 2.06  92 2.11  76 2.56  61 2.61
 111  0.035  0.056  0.653-  16 1.95  35 2.04  40 2.06  89 2.11  74 2.56  64 2.61
 112  0.965  0.056  0.153-  15 1.95  36 2.04  39 2.06  90 2.11  73 2.56  63 2.61
 113  0.806  0.215  0.097-  15 1.95  29 2.04  49 2.06  85 2.11  75 2.56  63 2.61
 114  0.194  0.215  0.597-  16 1.95  30 2.04  50 2.06  86 2.11  76 2.56  64 2.61
 115  0.465  0.056  0.347-  13 1.95  47 2.04  44 2.06  93 2.11  77 2.56  61 2.61
 116  0.535  0.056  0.847-  14 1.95  48 2.04  43 2.06  94 2.11  78 2.56  62 2.61
 117  0.194  0.785  0.903-  11 1.95  25 2.04  53 2.06  81 2.11  71 2.56  59 2.61
 118  0.806  0.785  0.403-  12 1.95  26 2.04  54 2.06  82 2.11  72 2.56  60 2.61
 119  0.535  0.944  0.653-   9 1.95  43 2.04  48 2.06  93 2.11  78 2.56  57 2.61
 120  0.465  0.944  0.153-  10 1.95  44 2.04  47 2.06  94 2.11  77 2.56  58 2.61
 121  0.806  0.285  0.597-  23 1.95  37 2.04  41 2.06  91 2.11  69 2.56  64 2.61
 122  0.194  0.285  0.097-  24 1.95  38 2.04  42 2.06  92 2.11  70 2.56  63 2.61
 123  0.465  0.444  0.847-  21 1.95  55 2.04  52 2.06  95 2.11  79 2.56  62 2.61
 124  0.535  0.444  0.347-  22 1.95  56 2.04  51 2.06  96 2.11  80 2.56  61 2.61
 125  0.194  0.715  0.403-  19 1.95  33 2.04  45 2.06  87 2.11  65 2.56  60 2.61
 126  0.806  0.715  0.903-  20 1.95  34 2.04  46 2.06  88 2.11  66 2.56  59 2.61
 127  0.535  0.556  0.153-  17 1.95  51 2.04  56 2.06  95 2.11  80 2.56  58 2.61
 128  0.465  0.556  0.653-  18 1.95  52 2.04  55 2.06  96 2.11  79 2.56  57 2.61
 129  0.103  0.804  0.216-   4 1.91  87 2.10  53 2.20  60 2.52  73 2.62
 130  0.897  0.804  0.716-   3 1.91  88 2.10  54 2.20  59 2.52  74 2.62
 131  0.054  0.353  0.466-   7 1.91  84 2.10  32 2.20  64 2.52  76 2.62
 132  0.946  0.353  0.966-   8 1.91  83 2.10  31 2.20  63 2.52  75 2.62
 133  0.897  0.196  0.784-   8 1.91  91 2.10  49 2.20  64 2.52  74 2.62
 134  0.103  0.196  0.284-   7 1.91  92 2.10  50 2.20  63 2.52  73 2.62
 135  0.946  0.647  0.534-   3 1.91  84 2.10  28 2.20  60 2.52  72 2.62
 136  0.054  0.647  0.034-   4 1.91  83 2.10  27 2.20  59 2.52  71 2.62
 137  0.103  0.696  0.716-   3 1.91  81 2.10  45 2.20  59 2.52  67 2.62
 138  0.897  0.696  0.216-   4 1.91  82 2.10  46 2.20  60 2.52  68 2.62
 139  0.054  0.147  0.966-   8 1.91  90 2.10  40 2.20  63 2.52  70 2.62
 140  0.946  0.147  0.466-   7 1.91  89 2.10  39 2.20  64 2.52  69 2.62
 141  0.897  0.304  0.284-   7 1.91  85 2.10  41 2.20  63 2.52  68 2.62
 142  0.103  0.304  0.784-   8 1.91  86 2.10  42 2.20  64 2.52  67 2.62
 143  0.946  0.853  0.034-   4 1.91  90 2.10  36 2.20  59 2.52  66 2.62
 144  0.054  0.853  0.534-   3 1.91  89 2.10  35 2.20  60 2.52  65 2.62
 145  0.603  0.304  0.716-   5 1.91  91 2.10  37 2.20  62 2.52  79 2.62
 146  0.397  0.304  0.216-   6 1.91  92 2.10  38 2.20  61 2.52  80 2.62
 147  0.554  0.853  0.966-   2 1.91  94 2.10  48 2.20  58 2.52  66 2.62
 148  0.446  0.853  0.466-   1 1.91  93 2.10  47 2.20  57 2.52  65 2.62
 149  0.397  0.696  0.284-   1 1.91  87 2.10  33 2.20  58 2.52  80 2.62
 150  0.603  0.696  0.784-   2 1.91  88 2.10  34 2.20  57 2.52  79 2.62
 151  0.446  0.147  0.034-   6 1.91  94 2.10  44 2.20  62 2.52  70 2.62
 152  0.554  0.147  0.534-   5 1.91  93 2.10  43 2.20  61 2.52  69 2.62
 153  0.603  0.196  0.216-   6 1.91  85 2.10  29 2.20  61 2.52  77 2.62
 154  0.397  0.196  0.716-   5 1.91  86 2.10  30 2.20  62 2.52  78 2.62
 155  0.554  0.647  0.466-   1 1.91  96 2.10  56 2.20  57 2.52  72 2.62
 156  0.446  0.647  0.966-   2 1.91  95 2.10  55 2.20  58 2.52  71 2.62
 157  0.397  0.804  0.784-   2 1.91  81 2.10  25 2.20  57 2.52  78 2.62
 158  0.603  0.804  0.284-   1 1.91  82 2.10  26 2.20  58 2.52  77 2.62
 159  0.446  0.353  0.534-   5 1.91  96 2.10  52 2.20  61 2.52  76 2.62
 160  0.554  0.353  0.034-   6 1.91  95 2.10  51 2.20  62 2.52  75 2.62
 161  0.278  0.900  0.303-  47 1.85  87 2.11  73 2.46  65 2.53
 162  0.722  0.900  0.803-  48 1.85  88 2.11  74 2.46  66 2.53
 163  0.150  0.528  0.553-  45 1.85  84 2.11  76 2.46  67 2.53
 164  0.850  0.528  0.053-  46 1.85  83 2.11  75 2.46  68 2.53
 165  0.722  0.100  0.697-  43 1.85  91 2.11  74 2.46  69 2.53
 166  0.278  0.100  0.197-  44 1.85  92 2.11  73 2.46  70 2.53
 167  0.850  0.472  0.447-  41 1.85  84 2.11  72 2.46  68 2.53
 168  0.150  0.472  0.947-  42 1.85  83 2.11  71 2.46  67 2.53
 169  0.278  0.600  0.803-  55 1.85  81 2.11  67 2.46  71 2.53
 170  0.722  0.600  0.303-  56 1.85  82 2.11  68 2.46  72 2.53
 171  0.150  0.972  0.053-  53 1.85  90 2.11  70 2.46  73 2.53
 172  0.850  0.972  0.553-  54 1.85  89 2.11  69 2.46  74 2.53
 173  0.722  0.400  0.197-  51 1.85  85 2.11  68 2.46  75 2.53
 174  0.278  0.400  0.697-  52 1.85  86 2.11  67 2.46  76 2.53
 175  0.850  0.028  0.947-  49 1.85  90 2.11  66 2.46  74 2.53
 176  0.150  0.028  0.447-  50 1.85  89 2.11  65 2.46  73 2.53
 177  0.778  0.400  0.803-  31 1.85  91 2.11  79 2.46  75 2.53
 178  0.222  0.400  0.303-  32 1.85  92 2.11  80 2.46  76 2.53
 179  0.650  0.028  0.053-  29 1.85  94 2.11  66 2.46  77 2.53
 180  0.350  0.028  0.553-  30 1.85  93 2.11  65 2.46  78 2.53
 181  0.222  0.600  0.197-  27 1.85  87 2.11  80 2.46  71 2.53
 182  0.778  0.600  0.697-  28 1.85  88 2.11  79 2.46  72 2.53
 183  0.350  0.972  0.947-  25 1.85  94 2.11  70 2.46  78 2.53
 184  0.650  0.972  0.447-  26 1.85  93 2.11  69 2.46  77 2.53
 185  0.778  0.100  0.303-  39 1.85  85 2.11  77 2.46  69 2.53
 186  0.222  0.100  0.803-  40 1.85  86 2.11  78 2.46  70 2.53
 187  0.650  0.472  0.553-  37 1.85  96 2.11  72 2.46  79 2.53
 188  0.350  0.472  0.053-  38 1.85  95 2.11  71 2.46  80 2.53
 189  0.222  0.900  0.697-  35 1.85  81 2.11  78 2.46  65 2.53
 190  0.778  0.900  0.197-  36 1.85  82 2.11  77 2.46  66 2.53
 191  0.350  0.528  0.447-  33 1.85  96 2.11  76 2.46  80 2.53
 192  0.650  0.528  0.947-  34 1.85  95 2.11  75 2.46  79 2.53


IMPORTANT INFORMATION: All symmetrisations will be switched off!
NOSYMM: (Re-)initialisation of all symmetry stuff for point group C_1.


----------------------------------------------------------------------------------------

                                     Primitive cell                                     

  volume of cell :    2166.8888

  direct lattice vectors                    reciprocal lattice vectors
    13.106500000  0.000000000  0.000000000     0.076298020  0.000000000  0.000000000
     0.000000000 13.106500000  0.000000000     0.000000000  0.076298020  0.000000000
     0.000000000  0.000000000 12.614300000     0.000000000  0.000000000  0.079275108

  length of vectors
    13.106500000 13.106500000 12.614300000     0.076298020  0.076298020  0.079275108

  position of ions in fractional coordinates (direct lattice)
     0.500000000  0.750000000  0.375000000
     0.500000000  0.750000000  0.875000000
     0.000000000  0.750000000  0.625000000
     0.000000000  0.750000000  0.125000000
     0.500000000  0.250000000  0.625000000
     0.500000000  0.250000000  0.125000000
     0.000000000  0.250000000  0.375000000
     0.000000000  0.250000000  0.875000000
     0.679800000  0.929800000  0.625000000
     0.320200000  0.929800000  0.125000000
     0.179800000  0.929800000  0.875000000
     0.820200000  0.929800000  0.375000000
     0.320200000  0.070200000  0.375000000
     0.679800000  0.070200000  0.875000000
     0.820200000  0.070200000  0.125000000
     0.179800000  0.070200000  0.625000000
     0.679800000  0.570200000  0.125000000
     0.320200000  0.570200000  0.625000000
     0.179800000  0.570200000  0.375000000
     0.820200000  0.570200000  0.875000000
     0.320200000  0.429800000  0.875000000
     0.679800000  0.429800000  0.375000000
     0.820200000  0.429800000  0.625000000
     0.179800000  0.429800000  0.125000000
     0.337100000  0.831300000  0.944300000
     0.662900000  0.831300000  0.444300000
     0.081300000  0.587100000  0.194300000
     0.918700000  0.587100000  0.694300000
     0.662900000  0.168700000  0.055700000
     0.337100000  0.168700000  0.555700000
     0.918700000  0.412900000  0.805700000
     0.081300000  0.412900000  0.305700000
     0.337100000  0.668700000  0.444300000
     0.662900000  0.668700000  0.944300000
     0.081300000  0.912900000  0.694300000
     0.918700000  0.912900000  0.194300000
     0.662900000  0.331300000  0.555700000
     0.337100000  0.331300000  0.055700000
     0.918700000  0.087100000  0.305700000
     0.081300000  0.087100000  0.805700000
     0.837100000  0.331300000  0.444300000
     0.162900000  0.331300000  0.944300000
     0.581300000  0.087100000  0.694300000
     0.418700000  0.087100000  0.194300000
     0.162900000  0.668700000  0.555700000
     0.837100000  0.668700000  0.055700000
     0.418700000  0.912900000  0.305700000
     0.581300000  0.912900000  0.805700000
     0.837100000  0.168700000  0.944300000
     0.162900000  0.168700000  0.444300000
     0.581300000  0.412900000  0.194300000
     0.418700000  0.412900000  0.694300000
     0.162900000  0.831300000  0.055700000
     0.837100000  0.831300000  0.555700000
     0.418700000  0.587100000  0.805700000
     0.581300000  0.587100000  0.305700000
     0.500000000  0.750000000  0.625000000
     0.500000000  0.750000000  0.125000000
     0.000000000  0.750000000  0.875000000
     0.000000000  0.750000000  0.375000000
     0.500000000  0.250000000  0.375000000
     0.500000000  0.250000000  0.875000000
     0.000000000  0.250000000  0.125000000
     0.000000000  0.250000000  0.625000000
     0.250000000  0.877400000  0.500000000
     0.750000000  0.877400000  0.000000000
     0.127400000  0.500000000  0.750000000
     0.872600000  0.500000000  0.250000000
     0.750000000  0.122600000  0.500000000
     0.250000000  0.122600000  0.000000000
     0.250000000  0.622600000  0.000000000
     0.750000000  0.622600000  0.500000000
     0.127400000  0.000000000  0.250000000
     0.872600000  0.000000000  0.750000000
     0.750000000  0.377400000  0.000000000
     0.250000000  0.377400000  0.500000000
     0.627400000  0.000000000  0.250000000
     0.372600000  0.000000000  0.750000000
     0.627400000  0.500000000  0.750000000
     0.372600000  0.500000000  0.250000000
     0.250000000  0.750000000  0.750000000
     0.750000000  0.750000000  0.250000000
     0.000000000  0.500000000  0.000000000
     0.000000000  0.500000000  0.500000000
     0.750000000  0.250000000  0.250000000
     0.250000000  0.250000000  0.750000000
     0.250000000  0.750000000  0.250000000
     0.750000000  0.750000000  0.750000000
     0.000000000  0.000000000  0.500000000
     0.000000000  0.000000000  0.000000000
     0.750000000  0.250000000  0.750000000
     0.250000000  0.250000000  0.250000000
     0.500000000  0.000000000  0.500000000
     0.500000000  0.000000000  0.000000000
     0.500000000  0.500000000  0.000000000
     0.500000000  0.500000000  0.500000000
     0.305500000  0.715500000  0.597100000
     0.694500000  0.715500000  0.097100000
     0.965500000  0.555500000  0.847100000
     0.034500000  0.555500000  0.347100000
     0.694500000  0.284500000  0.402900000
     0.305500000  0.284500000  0.902900000
     0.034500000  0.444500000  0.152900000
     0.965500000  0.444500000  0.652900000
     0.305500000  0.784500000  0.097100000
     0.694500000  0.784500000  0.597100000
     0.965500000  0.944500000  0.347100000
     0.034500000  0.944500000  0.847100000
     0.694500000  0.215500000  0.902900000
     0.305500000  0.215500000  0.402900000
     0.034500000  0.055500000  0.652900000
     0.965500000  0.055500000  0.152900000
     0.805500000  0.215500000  0.097100000
     0.194500000  0.215500000  0.597100000
     0.465500000  0.055500000  0.347100000
     0.534500000  0.055500000  0.847100000
     0.194500000  0.784500000  0.902900000
     0.805500000  0.784500000  0.402900000
     0.534500000  0.944500000  0.652900000
     0.465500000  0.944500000  0.152900000
     0.805500000  0.284500000  0.597100000
     0.194500000  0.284500000  0.097100000
     0.465500000  0.444500000  0.847100000
     0.534500000  0.444500000  0.347100000
     0.194500000  0.715500000  0.402900000
     0.805500000  0.715500000  0.902900000
     0.534500000  0.555500000  0.152900000
     0.465500000  0.555500000  0.652900000
     0.102700000  0.804400000  0.215700000
     0.897300000  0.804400000  0.715700000
     0.054400000  0.352700000  0.465700000
     0.945600000  0.352700000  0.965700000
     0.897300000  0.195600000  0.784300000
     0.102700000  0.195600000  0.284300000
     0.945600000  0.647300000  0.534300000
     0.054400000  0.647300000  0.034300000
     0.102700000  0.695600000  0.715700000
     0.897300000  0.695600000  0.215700000
     0.054400000  0.147300000  0.965700000
     0.945600000  0.147300000  0.465700000
     0.897300000  0.304400000  0.284300000
     0.102700000  0.304400000  0.784300000
     0.945600000  0.852700000  0.034300000
     0.054400000  0.852700000  0.534300000
     0.602700000  0.304400000  0.715700000
     0.397300000  0.304400000  0.215700000
     0.554400000  0.852700000  0.965700000
     0.445600000  0.852700000  0.465700000
     0.397300000  0.695600000  0.284300000
     0.602700000  0.695600000  0.784300000
     0.445600000  0.147300000  0.034300000
     0.554400000  0.147300000  0.534300000
     0.602700000  0.195600000  0.215700000
     0.397300000  0.195600000  0.715700000
     0.554400000  0.647300000  0.465700000
     0.445600000  0.647300000  0.965700000
     0.397300000  0.804400000  0.784300000
     0.602700000  0.804400000  0.284300000
     0.445600000  0.352700000  0.534300000
     0.554400000  0.352700000  0.034300000
     0.278000000  0.899900000  0.302900000
     0.722000000  0.899900000  0.802900000
     0.149900000  0.528000000  0.552900000
     0.850100000  0.528000000  0.052900000
     0.722000000  0.100100000  0.697100000
     0.278000000  0.100100000  0.197100000
     0.850100000  0.472000000  0.447100000
     0.149900000  0.472000000  0.947100000
     0.278000000  0.600100000  0.802900000
     0.722000000  0.600100000  0.302900000
     0.149900000  0.972000000  0.052900000
     0.850100000  0.972000000  0.552900000
     0.722000000  0.399900000  0.197100000
     0.278000000  0.399900000  0.697100000
     0.850100000  0.028000000  0.947100000
     0.149900000  0.028000000  0.447100000
     0.778000000  0.399900000  0.802900000
     0.222000000  0.399900000  0.302900000
     0.649900000  0.028000000  0.052900000
     0.350100000  0.028000000  0.552900000
     0.222000000  0.600100000  0.197100000
     0.778000000  0.600100000  0.697100000
     0.350100000  0.972000000  0.947100000
     0.649900000  0.972000000  0.447100000
     0.778000000  0.100100000  0.302900000
     0.222000000  0.100100000  0.802900000
     0.649900000  0.472000000  0.552900000
     0.350100000  0.472000000  0.052900000
     0.222000000  0.899900000  0.697100000
     0.778000000  0.899900000  0.197100000
     0.350100000  0.528000000  0.447100000
     0.649900000  0.528000000  0.947100000

  ion indices of the primitive-cell ions
   primitive index   ion index
                 1           1
                 2           2
                 3           3
                 4           4
                 5           5
                 6           6
                 7           7
                 8           8
                 9           9
                10          10
                11          11
                12          12
                13          13
                14          14
                15          15
                16          16
                17          17
                18          18
                19          19
                20          20
                21          21
                22          22
                23          23
                24          24
                25          25
                26          26
                27          27
                28          28
                29          29
                30          30
                31          31
                32          32
                33          33
                34          34
                35          35
                36          36
                37          37
                38          38
                39          39
                40          40
                41          41
                42          42
                43          43
                44          44
                45          45
                46          46
                47          47
                48          48
                49          49
                50          50
                51          51
                52          52
                53          53
                54          54
                55          55
                56          56
                57          57
                58          58
                59          59
                60          60
                61          61
                62          62
                63          63
                64          64
                65          65
                66          66
                67          67
                68          68
                69          69
                70          70
                71          71
                72          72
                73          73
                74          74
                75          75
                76          76
                77          77
                78          78
                79          79
                80          80
                81          81
                82          82
                83          83
                84          84
                85          85
                86          86
                87          87
                88          88
                89          89
                90          90
                91          91
                92          92
                93          93
                94          94
                95          95
                96          96
                97          97
                98          98
                99          99
               100         100
               101         101
               102         102
               103         103
               104         104
               105         105
               106         106
               107         107
               108         108
               109         109
               110         110
               111         111
               112         112
               113         113
               114         114
               115         115
               116         116
               117         117
               118         118
               119         119
               120         120
               121         121
               122         122
               123         123
               124         124
               125         125
               126         126
               127         127
               128         128
               129         129
               130         130
               131         131
               132         132
               133         133
               134         134
               135         135
               136         136
               137         137
               138         138
               139         139
               140         140
               141         141
               142         142
               143         143
               144         144
               145         145
               146         146
               147         147
               148         148
               149         149
               150         150
               151         151
               152         152
               153         153
               154         154
               155         155
               156         156
               157         157
               158         158
               159         159
               160         160
               161         161
               162         162
               163         163
               164         164
               165         165
               166         166
               167         167
               168         168
               169         169
               170         170
               171         171
               172         172
               173         173
               174         174
               175         175
               176         176
               177         177
               178         178
               179         179
               180         180
               181         181
               182         182
               183         183
               184         184
               185         185
               186         186
               187         187
               188         188
               189         189
               190         190
               191         191
               192         192

----------------------------------------------------------------------------------------



 KPOINTS: Default gamma                           

Automatic generation of k-mesh.
 Grid dimensions read from file:
 generate k-points for:    1    1    1

 Generating k-lattice:

  Cartesian coordinates                     Fractional coordinates (reciprocal lattice)
     0.076298020  0.000000000  0.000000000     1.000000000  0.000000000  0.000000000
     0.000000000  0.076298020  0.000000000     0.000000000  1.000000000  0.000000000
     0.000000000  0.000000000  0.079275108     0.000000000  0.000000000  1.000000000

  Length of vectors
     0.076298020  0.076298020  0.079275108

  Shift w.r.t. Gamma in fractional coordinates (k-lattice)
     0.000000000  0.000000000  0.000000000

 
 Subroutine IBZKPT returns following result:
 ===========================================
 
 Found      1 irreducible k-points:
 
 Following reciprocal coordinates:
            Coordinates               Weight
  0.000000  0.000000  0.000000      1.000000
 
 Following cartesian coordinates:
            Coordinates               Weight
  0.000000  0.000000  0.000000      1.000000
 
 
 Subroutine IBZKPT_HF returns following result:
 ==============================================
 
 Found      1 k-points in 1st BZ
 the following      1 k-points will be used (e.g. in the exchange kernel)
 Following reciprocal coordinates:   # in IRBZ
  0.000000  0.000000  0.000000    1.00000000   1 t-inv F


--------------------------------------------------------------------------------------------------------




 Dimension of arrays:
   k-points           NKPTS =      1   k-points in BZ     NKDIM =      1   number of bands    NBANDS=    736
   number of dos      NEDOS =    301   number of ions     NIONS =    192
   non local maximal  LDIM  =      8   non local SUM 2l+1 LMDIM =     32
   total plane-waves  NPLWV = 448000
   max r-space proj   IRMAX =   3781   max aug-charges    IRDMAX=  11001
   dimension x,y,z NGX =    80 NGY =   80 NGZ =   70
   dimension x,y,z NGXF=   160 NGYF=  160 NGZF=  140
   support grid    NGXF=   160 NGYF=  160 NGZF=  140
   ions per type =              56  24  16  96
   NGX,Y,Z   is equivalent  to a cutoff of  10.15, 10.15,  9.23 a.u.
   NGXF,Y,Z  is equivalent  to a cutoff of  20.29, 20.29, 18.45 a.u.

 SYSTEM =  unknown system                          
 POSCAR =  Li56 La24 Zr16 O96                      

 Startparameter for this run:
   NWRITE =      2    write-flag & timer
   PREC   = normal    normal or accurate (medium, high low for compatibility)
   ISTART =      0    job   : 0-new  1-cont  2-samecut
   ICHARG =      2    charge: 1-file 2-atom 10-const
   ISPIN  =      1    spin polarized calculation?
   LNONCOLLINEAR =      F non collinear calculations
   LSORBIT =      F    spin-orbit coupling
   INIWAV =      1    electr: 0-lowe 1-rand  2-diag
   LASPH  =      F    aspherical Exc in radial PAW
 Electronic Relaxation 1
   ENCUT  =  520.0 eV  38.22 Ry    6.18 a.u.  24.37 24.37 23.45*2*pi/ulx,y,z
   ENINI  =  520.0     initial cutoff
   ENAUG  =  628.9 eV  augmentation charge cutoff
   NELM   =    100;   NELMIN=  6; NELMDL=  0     # of ELM steps 
   EDIFF  = 0.1E-04   stopping-criterion for ELM
   LREAL  =      T    real-space projection
   NLSPLINE    = F    spline interpolate recip. space projectors
   LCOMPAT=      F    compatible to vasp.4.4
   GGA_COMPAT  = T    GGA compatible to vasp.4.4-vasp.4.6
   LMAXPAW     = -100 max onsite density
   LMAXMIX     =    6 max onsite mixed and CHGCAR
   VOSKOWN=      0    Vosko Wilk Nusair interpolation
   ROPT   =   -0.00050  -0.00050  -0.00050  -0.00050
 Ionic relaxation
   EDIFFG = -.1E-01   stopping-criterion for IOM
   NSW    =      0    number of steps for IOM
   NBLOCK =      1;   KBLOCK =      1    inner block; outer block 
   IBRION =     -1    ionic relax: 0-MD 1-quasi-New 2-CG
   NFREE  =      1    steps in history (QN), initial steepest desc. (CG)
   ISIF   =      3    stress and relaxation
   IWAVPR =     10    prediction:  0-non 1-charg 2-wave 3-comb
   ISYM   =      0    0-nonsym 1-usesym 2-fastsym
   LCORR  =      T    Harris-Foulkes like correction to forces

   POTIM  = 0.5000    time-step for ionic-motion
   TEIN   =    0.0    initial temperature
   TEBEG  =    0.0;   TEEND  =   0.0 temperature during run
   SMASS  =  -3.00    Nose mass-parameter (am)
   estimated Nose-frequenzy (Omega)   =  0.10E-29 period in steps = 0.13E+47 mass=  -0.393E-26a.u.
   SCALEE = 1.0000    scale energy and forces
   NPACO  =    256;   APACO  = 10.0  distance and # of slots for P.C.
   PSTRESS=    0.0 pullay stress

  Mass of Ions in am
   POMASS =   7.01138.90 91.22 16.00
  Ionic Valenz
   ZVAL   =   3.00 11.00 12.00  6.00
  Atomic Wigner-Seitz radii
   RWIGS  =  -1.00 -1.00 -1.00 -1.00
  virtual crystal weights 
   VCA    =   1.00  1.00  1.00  1.00
   NELECT =    1200.0000    total number of electrons
   NUPDOWN=      -1.0000    fix difference up-down

 DOS related values:
   EMIN   =  10.00;   EMAX   =-10.00  energy-range for DOS
   EFERMI =   0.00
   ISMEAR =     0;   SIGMA  =   0.05  broadening in eV -4-tet -1-fermi 0-gaus

 Electronic relaxation 2 (details)
   IALGO  =     38    algorithm
   LDIAG  =      T    sub-space diagonalisation (order eigenvalues)
   LSUBROT=      F    optimize rotation matrix (better conditioning)
   TURBO    =      0    0=normal 1=particle mesh
   IRESTART =      0    0=no restart 2=restart with 2 vectors
   NREBOOT  =      0    no. of reboots
   NMIN     =      0    reboot dimension
   EREF     =   0.00    reference energy to select bands
   IMIX   =      1    mixing-type and parameters
     AMIX     =   0.40;   BMIX     =  1.00
     AMIX_MAG =   1.60;   BMIX_MAG =  1.00
     AMIN     =   0.10
     WC   =   100.;   INIMIX=   1;  MIXPRE=   1;  MAXMIX= -45

 Intra band minimization:
   WEIMIN = 0.0000     energy-eigenvalue tresh-hold
   EBREAK =  0.34E-08  absolut break condition
   DEPER  =   0.30     relativ break condition  

   TIME   =   0.40     timestep for ELM

  volume/ion in A,a.u.               =      11.29        76.16
  Fermi-wavevector in a.u.,A,eV,Ry     =   1.344383  2.540516 24.590706  1.807366
  Thomas-Fermi vector in A             =   2.472381

 Write flags
   LWAVE        =      F    write WAVECAR
   LDOWNSAMPLE  =      F    k-point downsampling of WAVECAR
   LCHARG       =      F    write CHGCAR
   LVTOT        =      F    write LOCPOT, total local potential
   LVHAR        =      F    write LOCPOT, Hartree potential only
   LELF         =      F    write electronic localiz. function (ELF)
   LORBIT       =     11    0 simple, 1 ext, 2 COOP (PROOUT), +10 PAW based schemes


 Dipole corrections
   LMONO  =      F    monopole corrections only (constant potential shift)
   LDIPOL =      F    correct potential (dipole corrections)
   IDIPOL =      0    1-x, 2-y, 3-z, 4-all directions 
   EPSILON=  1.0000000 bulk dielectric constant

 Exchange correlation treatment:
   GGA     =    --    GGA type
   LEXCH   =     8    internal setting for exchange type
   LIBXC   =     F    Libxc                    
   VOSKOWN =     0    Vosko Wilk Nusair interpolation
   EXXOEP  =     0    0=HF, 1=EXX-LHF (local Hartree Fock) 2=EXX OEP
   LHFCALC =     T    Hartree Fock is set to
   LSYMGRAD=     F    symmetrize gradient (conserves proper symmetry)
   PRECFOCK=normal    Normal, Fast or Accurate (Low or Medium for compatibility)
   LRHFCALC=     F    long range Hartree Fock
   LRSCOR  =     F    long range correlation only (use DFT for short range part)
   LTHOMAS =     F    Thomas Fermi screening in HF
   LMODELHF=     F    short range full HF, long range fraction AEXX
   FOCKCORR=     1    mode to apply convergence corrections
   LFOCKACE=     T    use Adeptively-Compressed-Exchange operator
   ENCUT4O =  -1.0   cutoff for four orbital integrals eV
   LMAXFOCK=     4    L truncation for augmentation on plane wave grid
   LMAXFOCKAE=  -1    L truncation for all-electron charge restoration on plane wave grid
   NMAXFOCKAE=   1    number of basis functions for all-electron charge restoration
   LFOCKAEDFT=     F  apply the AE augmentation even for DFT
   NKREDX  =     1    reduce k-point grid by
   NKREDY  =     1    reduce k-point grid by
   NKREDZ  =     1    reduce k-point grid by
   SHIFTRED=     F    shift reduced grid of Gamma
   HFKIDENT=     F    idential grid for each k-point
   ODDONLY =     F    use only odd q-grid points
   EVENONLY=     F    use only even q-grid points
   HFALPHA =   -1.0000 decay constant for conv. correction
   MCALPHA =    0.0000 extent of test-charge in conv. correction in multipole expansion
   AEXX    =    0.2500 exact exchange contribution
   HFSCREEN=    0.2000 screening length (either q_TF or 0.3 A-1)
   HFSCREENC=   0.2000 screening length for correlation (either q_TF or 0.3 A-1)
   HFRCUT  =    0.0000 spherical cutoff for potential kernel
   ALDAX   =    0.7500 LDA exchange part
   AGGAX   =    0.7500 GGA exchange part
   ALDAC   =    1.0000 LDA correlation
   AGGAC   =    1.0000 GGA correlation
   ENCUTFOCK=  -1.0 apply spherical cutoff to Coloumb kernel
   NBANDSGWLOW=     1    first orbital included in HF term
   NBLOCK_FOCK=    64    blocking factor in FOCK_ACC

 Linear response parameters
   LEPSILON=     F    determine dielectric tensor
   LRPA    =     F    only Hartree local field effects (RPA)
   LNABLA  =     F    use nabla operator in PAW spheres
   LVEL    =     F    velocity operator in full k-point grid
   CSHIFT  =0.1000    complex shift for real part using Kramers Kronig
   OMEGAMAX=  -1.0    maximum frequency
   DEG_THRESHOLD= 0.2000000E-02 threshold for treating states as degnerate
   RTIME   =   -0.100 relaxation time in fs
  (WPLASMAI=    0.000 imaginary part of plasma frequency in eV, 0.658/RTIME)
   DFIELD  = 0.0000000 0.0000000 0.0000000 field for delta impulse in time

  Optional k-point grid parameters
   LKPOINTS_OPT  =     F    use optional k-point grid
   KPOINTS_OPT_MODE=     1    mode for optional k-point grid

 Orbital magnetization related:
   ORBITALMAG=     F  switch on orbital magnetization
   LCHIMAG   =     F  perturbation theory with respect to B field
   DQ        =  0.001000  dq finite difference perturbation B field
   LLRAUG    =     F  two centre corrections for induced B field



--------------------------------------------------------------------------------------------------------


 Static calculation
 charge density and potential will be updated during run
 non-spin polarized calculation
 Variant of blocked Davidson
 Davidson routine will perform the subspace rotation
 perform sub-space diagonalisation
    after iterative eigenvector-optimisation
 Kerker-like  mixing scheme
 using additional bands          136
 real space projection scheme for non local part
 use partial core corrections
 calculate Harris-corrections to forces   (improved forces if not selfconsistent)
 use gradient corrections 
 use of overlap-Matrix (Vanderbilt PP)
 Gauss-broadening in eV      SIGMA  =   0.05


--------------------------------------------------------------------------------------------------------


  energy-cutoff  :      520.00
  volume of cell :     2166.89
      direct lattice vectors                 reciprocal lattice vectors
    13.106500000  0.000000000  0.000000000     0.076298020  0.000000000  0.000000000
     0.000000000 13.106500000  0.000000000     0.000000000  0.076298020  0.000000000
     0.000000000  0.000000000 12.614300000     0.000000000  0.000000000  0.079275108

  length of vectors
    13.106500000 13.106500000 12.614300000     0.076298020  0.076298020  0.079275108



 k-points in units of 2pi/SCALE and weight: Default gamma                           
   0.00000000  0.00000000  0.00000000       1.000

 k-points in reciprocal lattice and weights: Default gamma                           
   0.00000000  0.00000000  0.00000000       1.000

 position of ions in fractional coordinates (direct lattice) 
   0.50000000  0.75000000  0.37500000
   0.50000000  0.75000000  0.87500000
   0.00000000  0.75000000  0.62500000
   0.00000000  0.75000000  0.12500000
   0.50000000  0.25000000  0.62500000
   0.50000000  0.25000000  0.12500000
   0.00000000  0.25000000  0.37500000
   0.00000000  0.25000000  0.87500000
   0.67980000  0.92980000  0.62500000
   0.32020000  0.92980000  0.12500000
   0.17980000  0.92980000  0.87500000
   0.82020000  0.92980000  0.37500000
   0.32020000  0.07020000  0.37500000
   0.67980000  0.07020000  0.87500000
   0.82020000  0.07020000  0.12500000
   0.17980000  0.07020000  0.62500000
   0.67980000  0.57020000  0.12500000
   0.32020000  0.57020000  0.62500000
   0.17980000  0.57020000  0.37500000
   0.82020000  0.57020000  0.87500000
   0.32020000  0.42980000  0.87500000
   0.67980000  0.42980000  0.37500000
   0.82020000  0.42980000  0.62500000
   0.17980000  0.42980000  0.12500000
   0.33710000  0.83130000  0.94430000
   0.66290000  0.83130000  0.44430000
   0.08130000  0.58710000  0.19430000
   0.91870000  0.58710000  0.69430000
   0.66290000  0.16870000  0.05570000
   0.33710000  0.16870000  0.55570000
   0.91870000  0.41290000  0.80570000
   0.08130000  0.41290000  0.30570000
   0.33710000  0.66870000  0.44430000
   0.66290000  0.66870000  0.94430000
   0.08130000  0.91290000  0.69430000
   0.91870000  0.91290000  0.19430000
   0.66290000  0.33130000  0.55570000
   0.33710000  0.33130000  0.05570000
   0.91870000  0.08710000  0.30570000
   0.08130000  0.08710000  0.80570000
   0.83710000  0.33130000  0.44430000
   0.16290000  0.33130000  0.94430000
   0.58130000  0.08710000  0.69430000
   0.41870000  0.08710000  0.19430000
   0.16290000  0.66870000  0.55570000
   0.83710000  0.66870000  0.05570000
   0.41870000  0.91290000  0.30570000
   0.58130000  0.91290000  0.80570000
   0.83710000  0.16870000  0.94430000
   0.16290000  0.16870000  0.44430000
   0.58130000  0.41290000  0.19430000
   0.41870000  0.41290000  0.69430000
   0.16290000  0.83130000  0.05570000
   0.83710000  0.83130000  0.55570000
   0.41870000  0.58710000  0.80570000
   0.58130000  0.58710000  0.30570000
   0.50000000  0.75000000  0.62500000
   0.50000000  0.75000000  0.12500000
   0.00000000  0.75000000  0.87500000
   0.00000000  0.75000000  0.37500000
   0.50000000  0.25000000  0.37500000
   0.50000000  0.25000000  0.87500000
   0.00000000  0.25000000  0.12500000
   0.00000000  0.25000000  0.62500000
   0.25000000  0.87740000  0.50000000
   0.75000000  0.87740000  0.00000000
   0.12740000  0.50000000  0.75000000
   0.87260000  0.50000000  0.25000000
   0.75000000  0.12260000  0.50000000
   0.25000000  0.12260000  0.00000000
   0.25000000  0.62260000  0.00000000
   0.75000000  0.62260000  0.50000000
   0.12740000  0.00000000  0.25000000
   0.87260000  0.00000000  0.75000000
   0.75000000  0.37740000  0.00000000
   0.25000000  0.37740000  0.50000000
   0.62740000  0.00000000  0.25000000
   0.37260000  0.00000000  0.75000000
   0.62740000  0.50000000  0.75000000
   0.37260000  0.50000000  0.25000000
   0.25000000  0.75000000  0.75000000
   0.75000000  0.75000000  0.25000000
   0.00000000  0.50000000  0.00000000
   0.00000000  0.50000000  0.50000000
   0.75000000  0.25000000  0.25000000
   0.25000000  0.25000000  0.75000000
   0.25000000  0.75000000  0.25000000
   0.75000000  0.75000000  0.75000000
   0.00000000  0.00000000  0.50000000
   0.00000000  0.00000000  0.00000000
   0.75000000  0.25000000  0.75000000
   0.25000000  0.25000000  0.25000000
   0.50000000  0.00000000  0.50000000
   0.50000000  0.00000000  0.00000000
   0.50000000  0.50000000  0.00000000
   0.50000000  0.50000000  0.50000000
   0.30550000  0.71550000  0.59710000
   0.69450000  0.71550000  0.09710000
   0.96550000  0.55550000  0.84710000
   0.03450000  0.55550000  0.34710000
   0.69450000  0.28450000  0.40290000
   0.30550000  0.28450000  0.90290000
   0.03450000  0.44450000  0.15290000
   0.96550000  0.44450000  0.65290000
   0.30550000  0.78450000  0.09710000
   0.69450000  0.78450000  0.59710000
   0.96550000  0.94450000  0.34710000
   0.03450000  0.94450000  0.84710000
   0.69450000  0.21550000  0.90290000
   0.30550000  0.21550000  0.40290000
   0.03450000  0.05550000  0.65290000
   0.96550000  0.05550000  0.15290000
   0.80550000  0.21550000  0.09710000
   0.19450000  0.21550000  0.59710000
   0.46550000  0.05550000  0.34710000
   0.53450000  0.05550000  0.84710000
   0.19450000  0.78450000  0.90290000
   0.80550000  0.78450000  0.40290000
   0.53450000  0.94450000  0.65290000
   0.46550000  0.94450000  0.15290000
   0.80550000  0.28450000  0.59710000
   0.19450000  0.28450000  0.09710000
   0.46550000  0.44450000  0.84710000
   0.53450000  0.44450000  0.34710000
   0.19450000  0.71550000  0.40290000
   0.80550000  0.71550000  0.90290000
   0.53450000  0.55550000  0.15290000
   0.46550000  0.55550000  0.65290000
   0.10270000  0.80440000  0.21570000
   0.89730000  0.80440000  0.71570000
   0.05440000  0.35270000  0.46570000
   0.94560000  0.35270000  0.96570000
   0.89730000  0.19560000  0.78430000
   0.10270000  0.19560000  0.28430000
   0.94560000  0.64730000  0.53430000
   0.05440000  0.64730000  0.03430000
   0.10270000  0.69560000  0.71570000
   0.89730000  0.69560000  0.21570000
   0.05440000  0.14730000  0.96570000
   0.94560000  0.14730000  0.46570000
   0.89730000  0.30440000  0.28430000
   0.10270000  0.30440000  0.78430000
   0.94560000  0.85270000  0.03430000
   0.05440000  0.85270000  0.53430000
   0.60270000  0.30440000  0.71570000
   0.39730000  0.30440000  0.21570000
   0.55440000  0.85270000  0.96570000
   0.44560000  0.85270000  0.46570000
   0.39730000  0.69560000  0.28430000
   0.60270000  0.69560000  0.78430000
   0.44560000  0.14730000  0.03430000
   0.55440000  0.14730000  0.53430000
   0.60270000  0.19560000  0.21570000
   0.39730000  0.19560000  0.71570000
   0.55440000  0.64730000  0.46570000
   0.44560000  0.64730000  0.96570000
   0.39730000  0.80440000  0.78430000
   0.60270000  0.80440000  0.28430000
   0.44560000  0.35270000  0.53430000
   0.55440000  0.35270000  0.03430000
   0.27800000  0.89990000  0.30290000
   0.72200000  0.89990000  0.80290000
   0.14990000  0.52800000  0.55290000
   0.85010000  0.52800000  0.05290000
   0.72200000  0.10010000  0.69710000
   0.27800000  0.10010000  0.19710000
   0.85010000  0.47200000  0.44710000
   0.14990000  0.47200000  0.94710000
   0.27800000  0.60010000  0.80290000
   0.72200000  0.60010000  0.30290000
   0.14990000  0.97200000  0.05290000
   0.85010000  0.97200000  0.55290000
   0.72200000  0.39990000  0.19710000
   0.27800000  0.39990000  0.69710000
   0.85010000  0.02800000  0.94710000
   0.14990000  0.02800000  0.44710000
   0.77800000  0.39990000  0.80290000
   0.22200000  0.39990000  0.30290000
   0.64990000  0.02800000  0.05290000
   0.35010000  0.02800000  0.55290000
   0.22200000  0.60010000  0.19710000
   0.77800000  0.60010000  0.69710000
   0.35010000  0.97200000  0.94710000
[...]
      LOOP:  cpu time      3.1584: real time      3.2280

 eigenvalue-minimisations  :  2112
 total energy-change (2. order) :-0.2169279E+04  (-0.1738937E+04)
 number of electron    1200.0000000 magnetization 
 augmentation part     1200.0000000 magnetization 

 Free energy of the ion-electron system (eV)
  ---------------------------------------------------
  alpha Z        PSCENC =      4063.64550349
  Ewald energy   TEWEN  =    -74509.09638000
  -Hartree energ DENC   =    -17993.81185627
  -exchange      EXHF   =         0.00000000
  -V(xc)+E(xc)   XCENC  =      4926.09210602
  PAW double counting   =     69254.24716809  -115460.53165420
  entropy T*S    EENTRO =        -0.50311425
  eigenvalues    EBANDS =    -11460.00868337
  atomic energy  EATOM  =     93825.48332522
  Solvation  Ediel_sol  =         0.00000000
  ---------------------------------------------------
  free energy    TOTEN  =    -47354.48358526 eV

  energy without entropy =   -47353.98047101  energy(sigma->0) =   -47354.23202813
  exchange ACFDT corr.  =         0.00000000  see jH, gK, PRB 81, 115126


--------------------------------------------------------------------------------------------------------




--------------------------------------- Iteration      1(   5)  ---------------------------------------


    POTLOK:  cpu time      0.0937: real time      0.1044
    SETDIJ:  cpu time      0.1919: real time      0.1936
     EDDAV:  cpu time    143.3900: real time    145.0826
       DOS:  cpu time      0.0003: real time      0.0003
    CHARGE:  cpu time      0.0418: real time      0.0421
    MIXING:  cpu time      0.0003: real time      0.0003
    --------------------------------------------
      LOOP:  cpu time    143.7179: real time    145.4232

 eigenvalue-minimisations  :  2432
 total energy-change (2. order) : 0.4595979E+05  (-0.7758277E+03)
 number of electron    1199.9999860 magnetization 
 augmentation part      100.9437333 magnetization 

 Free energy of the ion-electron system (eV)
  ---------------------------------------------------
  alpha Z        PSCENC =      4063.64550349
  Ewald energy   TEWEN  =    -74509.09638000
  -Hartree energ DENC   =    -17993.81185627
  -exchange      EXHF   =      3220.85762701
  -V(xc)+E(xc)   XCENC  =      3783.00378659
  PAW double counting   =     70316.88203017   -70841.14606676
  entropy T*S    EENTRO =        -0.00000000
  eigenvalues    EBANDS =    -13260.51619197
  atomic energy  EATOM  =     93825.48332522
  Solvation  Ediel_sol  =         0.00000000
  ---------------------------------------------------
  free energy    TOTEN  =     -1394.69822252 eV

  energy without entropy =    -1394.69822252  energy(sigma->0) =    -1394.69822252
  exchange ACFDT corr.  =         0.00000000  see jH, gK, PRB 81, 115126


--------------------------------------------------------------------------------------------------------




--------------------------------------- Iteration      1(   6)  ---------------------------------------


    POTLOK:  cpu time      0.1245: real time      0.1374
    SETDIJ:  cpu time      0.2295: real time      0.2314
     EDDAV:  cpu time    132.2060: real time    133.7618
       DOS:  cpu time      0.0004: real time      0.0004
    CHARGE:  cpu time      0.0405: real time      0.0408
    MIXING:  cpu time      0.0002: real time      0.0002
    --------------------------------------------
      LOOP:  cpu time    132.6011: real time    134.1721

 eigenvalue-minimisations  :  2752
 total energy-change (2. order) :-0.2112710E+03  (-0.1827275E+03)
 number of electron    1199.9999782 magnetization 
 augmentation part       95.3129318 magnetization 

 Free energy of the ion-electron system (eV)
  ---------------------------------------------------
  alpha Z        PSCENC =      4063.64550349
  Ewald energy   TEWEN  =    -74509.09638000
  -Hartree energ DENC   =    -18705.09563870
  -exchange      EXHF   =      3536.24937136
  -V(xc)+E(xc)   XCENC  =      3826.93023834
  PAW double counting   =     85546.28259310   -86160.35955226
  entropy T*S    EENTRO =        -0.00000000
  eigenvalues    EBANDS =    -13030.00870937
  atomic energy  EATOM  =     93825.48332522
  Solvation  Ediel_sol  =         0.00000000
  ---------------------------------------------------
  free energy    TOTEN  =     -1605.96924882 eV

  energy without entropy =    -1605.96924882  energy(sigma->0) =    -1605.96924882
  exchange ACFDT corr.  =         0.00000000  see jH, gK, PRB 81, 115126


--------------------------------------------------------------------------------------------------------




--------------------------------------- Iteration      1(   7)  ---------------------------------------


    POTLOK:  cpu time      0.1099: real time      0.1222
    SETDIJ:  cpu time      0.2249: real time      0.2267
     EDDAV:  cpu time    132.6692: real time    134.2346
       DOS:  cpu time      0.0004: real time      0.0004
    CHARGE:  cpu time      0.0406: real time      0.0410
    MIXING:  cpu time      0.0002: real time      0.0002
    --------------------------------------------
      LOOP:  cpu time    133.0453: real time    134.6251

 eigenvalue-minimisations  :  2784
 total energy-change (2. order) :-0.3174168E+01  (-0.4466885E+02)
 number of electron    1199.9999739 magnetization 
 augmentation part       84.3329143 magnetization 

 Free energy of the ion-electron system (eV)
  ---------------------------------------------------
  alpha Z        PSCENC =      4063.64550349
  Ewald energy   TEWEN  =    -74509.09638000
  -Hartree energ DENC   =    -19210.28606870
  -exchange      EXHF   =      3554.50800300
  -V(xc)+E(xc)   XCENC  =      3854.91320120
  PAW double counting   =     95868.19460884   -96522.11521160
  entropy T*S    EENTRO =        -0.00000000
  eigenvalues    EBANDS =    -12534.39039839
  atomic energy  EATOM  =     93825.48332522
  Solvation  Ediel_sol  =         0.00000000
  ---------------------------------------------------
  free energy    TOTEN  =     -1609.14341693 eV

  energy without entropy =    -1609.14341693  energy(sigma->0) =    -1609.14341693
  exchange ACFDT corr.  =         0.00000000  see jH, gK, PRB 81, 115126


--------------------------------------------------------------------------------------------------------




--------------------------------------- Iteration      1(   8)  ---------------------------------------


    POTLOK:  cpu time      0.1173: real time      0.1274
    SETDIJ:  cpu time      0.2087: real time      0.2104
     EDDAV:  cpu time    132.6092: real time    134.1695
       DOS:  cpu time      0.0005: real time      0.0005
    CHARGE:  cpu time      0.0391: real time      0.0394
    MIXING:  cpu time      0.0002: real time      0.0002
    --------------------------------------------
      LOOP:  cpu time    132.9750: real time    134.5473

 eigenvalue-minimisations  :  2944
 total energy-change (2. order) :-0.1514301E+02  (-0.9822163E+01)
 number of electron    1199.9999724 magnetization 
 augmentation part       78.2662928 magnetization 

 Free energy of the ion-electron system (eV)
  ---------------------------------------------------
  alpha Z        PSCENC =      4063.64550349
  Ewald energy   TEWEN  =    -74509.09638000
  -Hartree energ DENC   =    -19113.38034746
  -exchange      EXHF   =      3467.23767379
  -V(xc)+E(xc)   XCENC  =      3849.53142510
  PAW double counting   =    101991.80205203  -102643.73149086
  entropy T*S    EENTRO =        -0.00000000
  eigenvalues    EBANDS =    -12555.77818708
  atomic energy  EATOM  =     93825.48332522
  Solvation  Ediel_sol  =         0.00000000
  ---------------------------------------------------
  free energy    TOTEN  =     -1624.28642577 eV

  energy without entropy =    -1624.28642577  energy(sigma->0) =    -1624.28642577
  exchange ACFDT corr.  =         0.00000000  see jH, gK, PRB 81, 115126


--------------------------------------------------------------------------------------------------------




--------------------------------------- Iteration      1(   9)  ---------------------------------------


    POTLOK:  cpu time      0.1150: real time      0.1163
    SETDIJ:  cpu time      0.2212: real time      0.2229
     EDDAV:  cpu time    132.4672: real time    134.0106
       DOS:  cpu time      0.0004: real time      0.0004
    CHARGE:  cpu time      0.0427: real time      0.0433
    MIXING:  cpu time      0.0003: real time      0.0003
    --------------------------------------------
      LOOP:  cpu time    132.8468: real time    134.3938

 eigenvalue-minimisations  :  2944
 total energy-change (2. order) :-0.9151369E+00  (-0.2360741E+01)
 number of electron    1199.9999722 magnetization 
 augmentation part       76.2934476 magnetization 

 Free energy of the ion-electron system (eV)
  ---------------------------------------------------
  alpha Z        PSCENC =      4063.64550349
  Ewald energy   TEWEN  =    -74509.09638000
  -Hartree energ DENC   =    -19041.55276747
  -exchange      EXHF   =      3458.40350139
  -V(xc)+E(xc)   XCENC  =      3845.74995512
  PAW double counting   =    105966.89475665  -106606.14166706
  entropy T*S    EENTRO =        -0.00000000
  eigenvalues    EBANDS =    -12628.58779002
  atomic energy  EATOM  =     93825.48332522
  Solvation  Ediel_sol  =         0.00000000
  ---------------------------------------------------
  free energy    TOTEN  =     -1625.20156266 eV

  energy without entropy =    -1625.20156266  energy(sigma->0) =    -1625.20156266
  exchange ACFDT corr.  =         0.00000000  see jH, gK, PRB 81, 115126


--------------------------------------------------------------------------------------------------------




--------------------------------------- Iteration      1(  10)  ---------------------------------------


    POTLOK:  cpu time      0.1211: real time      0.1361
    SETDIJ:  cpu time      0.2357: real time      0.2370
     EDDAV:  cpu time    132.9416: real time    134.5005
       DOS:  cpu time      0.0004: real time      0.0004
    CHARGE:  cpu time      0.0403: real time      0.0406
    MIXING:  cpu time      0.0003: real time      0.0003
    --------------------------------------------
      LOOP:  cpu time    133.3393: real time    134.9149

 eigenvalue-minimisations  :  2944
 total energy-change (2. order) :-0.4709397E+00  (-0.6023171E+00)
 number of electron    1199.9999723 magnetization 
 augmentation part       75.4093381 magnetization 

 Free energy of the ion-electron system (eV)
  ---------------------------------------------------
  alpha Z        PSCENC =      4063.64550349
  Ewald energy   TEWEN  =    -74509.09638000
  -Hartree energ DENC   =    -19050.71582062
  -exchange      EXHF   =      3468.20063706
  -V(xc)+E(xc)   XCENC  =      3846.49422370
  PAW double counting   =    108595.67910124  -109224.96119547
  entropy T*S    EENTRO =        -0.00000000
  eigenvalues    EBANDS =    -12640.40189700
  atomic energy  EATOM  =     93825.48332522
  Solvation  Ediel_sol  =         0.00000000
  ---------------------------------------------------
  free energy    TOTEN  =     -1625.67250237 eV

  energy without entropy =    -1625.67250237  energy(sigma->0) =    -1625.67250237
  exchange ACFDT corr.  =         0.00000000  see jH, gK, PRB 81, 115126


--------------------------------------------------------------------------------------------------------




--------------------------------------- Iteration      1(  11)  ---------------------------------------


    POTLOK:  cpu time      0.1209: real time      0.1357
    SETDIJ:  cpu time      0.2081: real time      0.2096
     EDDAV:  cpu time    132.8145: real time    134.3719
       DOS:  cpu time      0.0004: real time      0.0004
    CHARGE:  cpu time      0.0398: real time      0.0401
    MIXING:  cpu time      0.0002: real time      0.0002
    --------------------------------------------
      LOOP:  cpu time    133.1839: real time    134.7580

 eigenvalue-minimisations  :  2944
 total energy-change (2. order) :-0.8552888E-01  (-0.1656633E+00)
 number of electron    1199.9999725 magnetization 
 augmentation part       74.5788458 magnetization 

 Free energy of the ion-electron system (eV)
  ---------------------------------------------------
  alpha Z        PSCENC =      4063.64550349
  Ewald energy   TEWEN  =    -74509.09638000
  -Hartree energ DENC   =    -19087.02559912
  -exchange      EXHF   =      3473.13638198
  -V(xc)+E(xc)   XCENC  =      3848.69335910
  PAW double counting   =    110215.11715050  -110837.36682357
  entropy T*S    EENTRO =        -0.00000000
  eigenvalues    EBANDS =    -12618.34494885
  atomic energy  EATOM  =     93825.48332522
  Solvation  Ediel_sol  =         0.00000000
  ---------------------------------------------------
  free energy    TOTEN  =     -1625.75803125 eV

  energy without entropy =    -1625.75803125  energy(sigma->0) =    -1625.75803125
  exchange ACFDT corr.  =         0.00000000  see jH, gK, PRB 81, 115126


--------------------------------------------------------------------------------------------------------




--------------------------------------- Iteration      1(  12)  ---------------------------------------


    POTLOK:  cpu time      0.1107: real time      0.1217
    SETDIJ:  cpu time      0.2076: real time      0.2095
     EDDAV:  cpu time    132.7573: real time    134.2111
       DOS:  cpu time      0.0004: real time      0.0004
    CHARGE:  cpu time      0.0398: real time      0.0402
    MIXING:  cpu time      0.0002: real time      0.0002
    --------------------------------------------
      LOOP:  cpu time    133.1162: real time    134.5832

 eigenvalue-minimisations  :  2944
 total energy-change (2. order) :-0.1566545E-01  (-0.4965656E-01)
 number of electron    1199.9999727 magnetization 
 augmentation part       74.2661375 magnetization 

 Free energy of the ion-electron system (eV)
  ---------------------------------------------------
  alpha Z        PSCENC =      4063.64550349
  Ewald energy   TEWEN  =    -74509.09638000
  -Hartree energ DENC   =    -19103.08297453
  -exchange      EXHF   =      3471.69620162
  -V(xc)+E(xc)   XCENC  =      3849.75510317
  PAW double counting   =    111221.23333351  -111838.22426185
  entropy T*S    EENTRO =        -0.00000000
  eigenvalues    EBANDS =    -12607.18354734
  atomic energy  EATOM  =     93825.48332522
  Solvation  Ediel_sol  =         0.00000000
  ---------------------------------------------------
  free energy    TOTEN  =     -1625.77369670 eV

  energy without entropy =    -1625.77369670  energy(sigma->0) =    -1625.77369670
  exchange ACFDT corr.  =         0.00000000  see jH, gK, PRB 81, 115126


--------------------------------------------------------------------------------------------------------




--------------------------------------- Iteration      1(  13)  ---------------------------------------


    POTLOK:  cpu time      0.1266: real time      0.1353
    SETDIJ:  cpu time      0.2066: real time      0.2081
     EDDAV:  cpu time    132.6209: real time    134.0683
       DOS:  cpu time      0.0004: real time      0.0004
    CHARGE:  cpu time      0.0400: real time      0.0403
    MIXING:  cpu time      0.0002: real time      0.0002
    --------------------------------------------
      LOOP:  cpu time    132.9947: real time    134.4526

 eigenvalue-minimisations  :  2944
 total energy-change (2. order) : 0.1903137E-03  (-0.1394385E-01)
 number of electron    1199.9999729 magnetization 
 augmentation part       74.0975924 magnetization 

 Free energy of the ion-electron system (eV)
  ---------------------------------------------------
  alpha Z        PSCENC =      4063.64550349
  Ewald energy   TEWEN  =    -74509.09638000
  -Hartree energ DENC   =    -19114.42714302
  -exchange      EXHF   =      3471.59594676
  -V(xc)+E(xc)   XCENC  =      3850.50322582
  PAW double counting   =    111835.92371155  -112449.49277878
  entropy T*S    EENTRO =        -0.00000000
  eigenvalues    EBANDS =    -12599.90891742
  atomic energy  EATOM  =     93825.48332522
  Solvation  Ediel_sol  =         0.00000000
  ---------------------------------------------------
  free energy    TOTEN  =     -1625.77350639 eV

  energy without entropy =    -1625.77350639  energy(sigma->0) =    -1625.77350639
  exchange ACFDT corr.  =         0.00000000  see jH, gK, PRB 81, 115126


--------------------------------------------------------------------------------------------------------




--------------------------------------- Iteration      1(  14)  ---------------------------------------


    POTLOK:  cpu time      0.1311: real time      0.1383
    SETDIJ:  cpu time      0.1961: real time      0.1981
     EDDAV:  cpu time    132.1607: real time    133.6718
       DOS:  cpu time      0.0004: real time      0.0004
    CHARGE:  cpu time      0.0397: real time      0.0400
    MIXING:  cpu time      0.0002: real time      0.0002
    --------------------------------------------
      LOOP:  cpu time    132.5282: real time    134.0488

 eigenvalue-minimisations  :  2944
 total energy-change (2. order) : 0.1155326E-02  (-0.4128923E-02)
 number of electron    1199.9999730 magnetization 
 augmentation part       74.0488008 magnetization 

 Free energy of the ion-electron system (eV)
  ---------------------------------------------------
  alpha Z        PSCENC =      4063.64550349
  Ewald energy   TEWEN  =    -74509.09638000
  -Hartree energ DENC   =    -19121.72011378
  -exchange      EXHF   =      3471.53300289
  -V(xc)+E(xc)   XCENC  =      3850.98979496
  PAW double counting   =    112214.47051596  -112825.92328256
  entropy T*S    EENTRO =        -0.00000000
  eigenvalues    EBANDS =    -12595.15471724
  atomic energy  EATOM  =     93825.48332522
  Solvation  Ediel_sol  =         0.00000000
  ---------------------------------------------------
  free energy    TOTEN  =     -1625.77235106 eV

  energy without entropy =    -1625.77235106  energy(sigma->0) =    -1625.77235106
  exchange ACFDT corr.  =         0.00000000  see jH, gK, PRB 81, 115126


--------------------------------------------------------------------------------------------------------




--------------------------------------- Iteration      1(  15)  ---------------------------------------


    POTLOK:  cpu time      0.1135: real time      0.1270
    SETDIJ:  cpu time      0.2062: real time      0.2082
     EDDAV:  cpu time    132.7427: real time    134.2961
       DOS:  cpu time      0.0004: real time      0.0004
    CHARGE:  cpu time      0.0392: real time      0.0396
    MIXING:  cpu time      0.0002: real time      0.0002
    --------------------------------------------
      LOOP:  cpu time    133.1022: real time    134.6714

 eigenvalue-minimisations  :  2880
 total energy-change (2. order) : 0.2711976E-03  (-0.1346966E-02)
 number of electron    1199.9999730 magnetization 
 augmentation part       74.0408656 magnetization 

 Free energy of the ion-electron system (eV)
  ---------------------------------------------------
  alpha Z        PSCENC =      4063.64550349
  Ewald energy   TEWEN  =    -74509.09638000
  -Hartree energ DENC   =    -19127.11517947
  -exchange      EXHF   =      3471.62459578
  -V(xc)+E(xc)   XCENC  =      3851.34015594
  PAW double counting   =    112444.74304468  -113054.95479843
  entropy T*S    EENTRO =        -0.00000000
  eigenvalues    EBANDS =    -12591.44234709
  atomic energy  EATOM  =     93825.48332522
  Solvation  Ediel_sol  =         0.00000000
  ---------------------------------------------------
  free energy    TOTEN  =     -1625.77207986 eV

  energy without entropy =    -1625.77207986  energy(sigma->0) =    -1625.77207986
  exchange ACFDT corr.  =         0.00000000  see jH, gK, PRB 81, 115126


--------------------------------------------------------------------------------------------------------




--------------------------------------- Iteration      1(  16)  ---------------------------------------
